Program Version,EnergyPlus-Linux-64 8.1.0.009, YMD=2014.08.26 07:09
1,5,Environment Title[],Latitude[deg],Longitude[deg],Time Zone[],Elevation[m]
2,6,Day of Simulation[],Month[],Day of Month[],DST Indicator[1=yes 0=no],Hour[],StartMinute[],EndMinute[],DayType
3,3,Cumulative Day of Simulation[],Month[],Day of Month[],DST Indicator[1=yes 0=no],DayType  ! When Daily Meters Requested
4,2,Cumulative Days of Simulation[],Month[]  ! When Monthly Meters Requested
5,1,Cumulative Days of Simulation[] ! When Run Period Meters Requested
21,11,Electricity:Facility [J] !RunPeriod [Value,Min,Month,Day,Hour,Minute,Max,Month,Day,Hour,Minute]
461,11,ElectricityPurchased:Facility [J] !RunPeriod [Value,Min,Month,Day,Hour,Minute,Max,Month,Day,Hour,Minute]
492,11,ElectricitySurplusSold:Facility [J] !RunPeriod [Value,Min,Month,Day,Hour,Minute,Max,Month,Day,Hour,Minute]
523,11,ElectricityNet:Facility [J] !RunPeriod [Value,Min,Month,Day,Hour,Minute,Max,Month,Day,Hour,Minute]
833,11,Source:Facility [J] !RunPeriod [Value,Min,Month,Day,Hour,Minute,Max,Month,Day,Hour,Minute]
854,11,CO2:Facility [kg] !RunPeriod [Value,Min,Month,Day,Hour,Minute,Max,Month,Day,Hour,Minute]
31,11,Electricity:Building [J] !RunPeriod [Value,Min,Month,Day,Hour,Minute,Max,Month,Day,Hour,Minute]
724,11,Electricity:Plant [J] !RunPeriod [Value,Min,Month,Day,Hour,Minute,Max,Month,Day,Hour,Minute]
599,11,Electricity:HVAC [J] !RunPeriod [Value,Min,Month,Day,Hour,Minute,Max,Month,Day,Hour,Minute]
51,11,InteriorLights:Electricity [J] !RunPeriod [Value,Min,Month,Day,Hour,Minute,Max,Month,Day,Hour,Minute]
166,11,InteriorEquipment:Electricity [J] !RunPeriod [Value,Min,Month,Day,Hour,Minute,Max,Month,Day,Hour,Minute]
609,11,Fans:Electricity [J] !RunPeriod [Value,Min,Month,Day,Hour,Minute,Max,Month,Day,Hour,Minute]
705,11,Cooling:Electricity [J] !RunPeriod [Value,Min,Month,Day,Hour,Minute,Max,Month,Day,Hour,Minute]
822,11,Pumps:Electricity [J] !RunPeriod [Value,Min,Month,Day,Hour,Minute,Max,Month,Day,Hour,Minute]
801,11,Heating:Electricity [J] !RunPeriod [Value,Min,Month,Day,Hour,Minute,Max,Month,Day,Hour,Minute]
760,11,Gas:Facility [J] !RunPeriod [Value,Min,Month,Day,Hour,Minute,Max,Month,Day,Hour,Minute]
780,11,Heating:Gas [J] !RunPeriod [Value,Min,Month,Day,Hour,Minute,Max,Month,Day,Hour,Minute]
770,11,Gas:Plant [J] !RunPeriod [Value,Min,Month,Day,Hour,Minute,Max,Month,Day,Hour,Minute]
18,1,Electricity:Facility [J] !Hourly
520,1,ElectricityNet:Facility [J] !Hourly
757,1,Gas:Facility [J] !Hourly
20,9,Electricity:Facility [J] !Monthly  [Value,Min,Day,Hour,Minute,Max,Day,Hour,Minute]
759,9,Gas:Facility [J] !Monthly  [Value,Min,Day,Hour,Minute,Max,Day,Hour,Minute]
853,9,CO2:Facility [kg] !Monthly  [Value,Min,Day,Hour,Minute,Max,Day,Hour,Minute]
874,9,CO:Facility [kg] !Monthly  [Value,Min,Day,Hour,Minute,Max,Day,Hour,Minute]
895,9,CH4:Facility [kg] !Monthly  [Value,Min,Day,Hour,Minute,Max,Day,Hour,Minute]
916,9,NOx:Facility [kg] !Monthly  [Value,Min,Day,Hour,Minute,Max,Day,Hour,Minute]
937,9,N2O:Facility [kg] !Monthly  [Value,Min,Day,Hour,Minute,Max,Day,Hour,Minute]
958,9,SO2:Facility [kg] !Monthly  [Value,Min,Day,Hour,Minute,Max,Day,Hour,Minute]
979,9,PM:Facility [kg] !Monthly  [Value,Min,Day,Hour,Minute,Max,Day,Hour,Minute]
1000,9,PM10:Facility [kg] !Monthly  [Value,Min,Day,Hour,Minute,Max,Day,Hour,Minute]
1021,9,PM2.5:Facility [kg] !Monthly  [Value,Min,Day,Hour,Minute,Max,Day,Hour,Minute]
1042,9,NH3:Facility [kg] !Monthly  [Value,Min,Day,Hour,Minute,Max,Day,Hour,Minute]
1063,9,NMVOC:Facility [kg] !Monthly  [Value,Min,Day,Hour,Minute,Max,Day,Hour,Minute]
1084,9,Hg:Facility [kg] !Monthly  [Value,Min,Day,Hour,Minute,Max,Day,Hour,Minute]
1105,9,Pb:Facility [kg] !Monthly  [Value,Min,Day,Hour,Minute,Max,Day,Hour,Minute]
1126,9,WaterEnvironmentalFactors:Facility [L] !Monthly  [Value,Min,Day,Hour,Minute,Max,Day,Hour,Minute]
1147,9,Nuclear High:Facility [kg] !Monthly  [Value,Min,Day,Hour,Minute,Max,Day,Hour,Minute]
1168,9,Nuclear Low:Facility [m3] !Monthly  [Value,Min,Day,Hour,Minute,Max,Day,Hour,Minute]
1772,9,Carbon Equivalent:Facility [kg] !Monthly  [Value,Min,Day,Hour,Minute,Max,Day,Hour,Minute]
End of Data Dictionary
1,Hyderabad Andhra Pradesh IND ISHRAE WMO#=431280,  17.45,  78.47,   5.50, 545.00
2,1, 1, 1, 0, 1, 0.00,60.00,Holiday        
18,8521920.234
520,8521920.234
757,0.0
2,1, 1, 1, 0, 2, 0.00,60.00,Holiday        
18,8521920.234
520,8521920.234
757,0.0
2,1, 1, 1, 0, 3, 0.00,60.00,Holiday        
18,8521920.234
520,8521920.234
757,0.0
2,1, 1, 1, 0, 4, 0.00,60.00,Holiday        
18,8521920.234
520,8521920.234
757,0.0
2,1, 1, 1, 0, 5, 0.00,60.00,Holiday        
18,8521920.234
520,8521920.234
757,0.0
2,1, 1, 1, 0, 6, 0.00,60.00,Holiday        
18,8521920.234
520,8521920.234
757,0.0
2,1, 1, 1, 0, 7, 0.00,60.00,Holiday        
18,8521920.234
520,8521920.234
757,0.0
2,1, 1, 1, 0, 8, 0.00,60.00,Holiday        
18,8521920.234
520,8521920.234
757,0.0
2,1, 1, 1, 0, 9, 0.00,60.00,Holiday        
18,8521920.234
520,8521920.234
757,0.0
2,1, 1, 1, 0,10, 0.00,60.00,Holiday        
18,8521920.234
520,8521920.234
757,0.0
2,1, 1, 1, 0,11, 0.00,60.00,Holiday        
18,8521920.234
520,8521920.234
757,0.0
2,1, 1, 1, 0,12, 0.00,60.00,Holiday        
18,8521920.234
520,8521920.234
757,0.0
2,1, 1, 1, 0,13, 0.00,60.00,Holiday        
18,8521920.234
520,8521920.234
757,0.0
2,1, 1, 1, 0,14, 0.00,60.00,Holiday        
18,8521920.234
520,8521920.234
757,0.0
2,1, 1, 1, 0,15, 0.00,60.00,Holiday        
18,8521920.234
520,8521920.234
757,0.0
2,1, 1, 1, 0,16, 0.00,60.00,Holiday        
18,8521920.234
520,8521920.234
757,0.0
2,1, 1, 1, 0,17, 0.00,60.00,Holiday        
18,8521920.234
520,8521920.234
757,0.0
2,1, 1, 1, 0,18, 0.00,60.00,Holiday        
18,8521920.234
520,8521920.234
757,0.0
2,1, 1, 1, 0,19, 0.00,60.00,Holiday        
18,8521920.234
520,8521920.234
757,0.0
2,1, 1, 1, 0,20, 0.00,60.00,Holiday        
18,8521920.234
520,8521920.234
757,0.0
2,1, 1, 1, 0,21, 0.00,60.00,Holiday        
18,8521920.234
520,8521920.234
757,0.0
2,1, 1, 1, 0,22, 0.00,60.00,Holiday        
18,8521920.234
520,8521920.234
757,0.0
2,1, 1, 1, 0,23, 0.00,60.00,Holiday        
18,8521920.234
520,8521920.234
757,0.0
2,1, 1, 1, 0,24, 0.00,60.00,Holiday        
18,8521920.234
520,8521920.234
757,0.0
2,2, 1, 2, 0, 1, 0.00,60.00,Monday         
18,10846080.306
520,10846080.306
757,0.0
2,2, 1, 2, 0, 2, 0.00,60.00,Monday         
18,10846080.306
520,10846080.306
757,0.0
2,2, 1, 2, 0, 3, 0.00,60.00,Monday         
18,10846080.306
520,10846080.306
757,0.0
2,2, 1, 2, 0, 4, 0.00,60.00,Monday         
18,10846080.306
520,10846080.306
757,0.0
2,2, 1, 2, 0, 5, 0.00,60.00,Monday         
18,10846080.306
520,10846080.306
757,0.0
2,2, 1, 2, 0, 6, 0.00,60.00,Monday         
18,12494130.9764717
520,12494130.9764717
757,11749.0020606209
2,2, 1, 2, 0, 7, 0.00,60.00,Monday         
18,12395520.324
520,12395520.324
757,0.0
2,2, 1, 2, 0, 8, 0.00,60.00,Monday         
18,18593280.396
520,18593280.396
757,0.0
2,2, 1, 2, 0, 9, 0.00,60.00,Monday         
18,48807360.972
520,48807360.972
757,0.0
2,2, 1, 2, 0,10, 0.00,60.00,Monday         
18,48807360.972
520,48807360.972
757,0.0
2,2, 1, 2, 0,11, 0.00,60.00,Monday         
18,48807360.972
520,48807360.972
757,0.0
2,2, 1, 2, 0,12, 0.00,60.00,Monday         
18,48977150.42983
520,48977150.42983
757,0.0
2,2, 1, 2, 0,13, 0.00,60.00,Monday         
18,47148080.7592022
520,47148080.7592022
757,0.0
2,2, 1, 2, 0,14, 0.00,60.00,Monday         
18,53661486.5905145
520,53661486.5905145
757,0.0
2,2, 1, 2, 0,15, 0.00,60.00,Monday         
18,56744386.2675088
520,56744386.2675088
757,0.0
2,2, 1, 2, 0,16, 0.00,60.00,Monday         
18,58997303.895038
520,58997303.895038
757,0.0
2,2, 1, 2, 0,17, 0.00,60.00,Monday         
18,60754615.0852266
520,60754615.0852266
757,0.0
2,2, 1, 2, 0,18, 0.00,60.00,Monday         
18,34146355.6494315
520,34146355.6494315
757,0.0
2,2, 1, 2, 0,19, 0.00,60.00,Monday         
18,23231082.5096363
520,23231082.5096362
757,0.0
2,2, 1, 2, 0,20, 0.00,60.00,Monday         
18,22359787.0570499
520,22359787.0570499
757,0.0
2,2, 1, 2, 0,21, 0.00,60.00,Monday         
18,17942447.2500013
520,17942447.2500013
757,0.0
2,2, 1, 2, 0,22, 0.00,60.00,Monday         
18,17002582.0951954
520,17002582.0951954
757,0.0
2,2, 1, 2, 0,23, 0.00,60.00,Monday         
18,12395520.324
520,12395520.324
757,0.0
2,2, 1, 2, 0,24, 0.00,60.00,Monday         
18,10846080.306
520,10846080.306
757,0.0
2,3, 1, 3, 0, 1, 0.00,60.00,Tuesday        
18,10846080.306
520,10846080.306
757,0.0
2,3, 1, 3, 0, 2, 0.00,60.00,Tuesday        
18,10846080.306
520,10846080.306
757,0.0
2,3, 1, 3, 0, 3, 0.00,60.00,Tuesday        
18,10846080.306
520,10846080.306
757,0.0
2,3, 1, 3, 0, 4, 0.00,60.00,Tuesday        
18,10846080.306
520,10846080.306
757,0.0
2,3, 1, 3, 0, 5, 0.00,60.00,Tuesday        
18,10846080.306
520,10846080.306
757,0.0
2,3, 1, 3, 0, 6, 0.00,60.00,Tuesday        
18,12395520.324
520,12395520.324
757,0.0
2,3, 1, 3, 0, 7, 0.00,60.00,Tuesday        
18,12395520.324
520,12395520.324
757,0.0
2,3, 1, 3, 0, 8, 0.00,60.00,Tuesday        
18,18593280.396
520,18593280.396
757,0.0
2,3, 1, 3, 0, 9, 0.00,60.00,Tuesday        
18,48807360.972
520,48807360.972
757,0.0
2,3, 1, 3, 0,10, 0.00,60.00,Tuesday        
18,48869402.7951077
520,48869402.7951077
757,0.0
2,3, 1, 3, 0,11, 0.00,60.00,Tuesday        
18,49679155.4818664
520,49679155.4818664
757,0.0
2,3, 1, 3, 0,12, 0.00,60.00,Tuesday        
18,51386599.0949233
520,51386599.0949232
757,0.0
2,3, 1, 3, 0,13, 0.00,60.00,Tuesday        
18,49845312.288286
520,49845312.288286
757,0.0
2,3, 1, 3, 0,14, 0.00,60.00,Tuesday        
18,56427753.4261667
520,56427753.4261667
757,0.0
2,3, 1, 3, 0,15, 0.00,60.00,Tuesday        
18,58487216.3009783
520,58487216.3009783
757,0.0
2,3, 1, 3, 0,16, 0.00,60.00,Tuesday        
18,60366014.6950168
520,60366014.6950168
757,0.0
2,3, 1, 3, 0,17, 0.00,60.00,Tuesday        
18,61924265.2026727
520,61924265.2026728
757,0.0
2,3, 1, 3, 0,18, 0.00,60.00,Tuesday        
18,35104352.0804191
520,35104352.0804191
757,0.0
2,3, 1, 3, 0,19, 0.00,60.00,Tuesday        
18,23886931.686891
520,23886931.686891
757,0.0
2,3, 1, 3, 0,20, 0.00,60.00,Tuesday        
18,22889208.4763566
520,22889208.4763566
757,0.0
2,3, 1, 3, 0,21, 0.00,60.00,Tuesday        
18,18410104.5687721
520,18410104.5687721
757,0.0
2,3, 1, 3, 0,22, 0.00,60.00,Tuesday        
18,17456008.9762958
520,17456008.9762958
757,0.0
2,3, 1, 3, 0,23, 0.00,60.00,Tuesday        
18,12395520.324
520,12395520.324
757,0.0
2,3, 1, 3, 0,24, 0.00,60.00,Tuesday        
18,10846080.306
520,10846080.306
757,0.0
2,4, 1, 4, 0, 1, 0.00,60.00,Wednesday      
18,10846080.306
520,10846080.306
757,0.0
2,4, 1, 4, 0, 2, 0.00,60.00,Wednesday      
18,10846080.306
520,10846080.306
757,0.0
2,4, 1, 4, 0, 3, 0.00,60.00,Wednesday      
18,10846080.306
520,10846080.306
757,0.0
2,4, 1, 4, 0, 4, 0.00,60.00,Wednesday      
18,10846080.306
520,10846080.306
757,0.0
2,4, 1, 4, 0, 5, 0.00,60.00,Wednesday      
18,10846080.306
520,10846080.306
757,0.0
2,4, 1, 4, 0, 6, 0.00,60.00,Wednesday      
18,12395520.324
520,12395520.324
757,0.0
2,4, 1, 4, 0, 7, 0.00,60.00,Wednesday      
18,12395520.324
520,12395520.324
757,0.0
2,4, 1, 4, 0, 8, 0.00,60.00,Wednesday      
18,18593280.396
520,18593280.396
757,0.0
2,4, 1, 4, 0, 9, 0.00,60.00,Wednesday      
18,48807360.972
520,48807360.972
757,0.0
2,4, 1, 4, 0,10, 0.00,60.00,Wednesday      
18,49101228.0410539
520,49101228.0410539
757,0.0
2,4, 1, 4, 0,11, 0.00,60.00,Wednesday      
18,50196149.2916162
520,50196149.2916162
757,0.0
2,4, 1, 4, 0,12, 0.00,60.00,Wednesday      
18,52471696.3877318
520,52471696.3877318
757,0.0
2,4, 1, 4, 0,13, 0.00,60.00,Wednesday      
18,50558239.1113567
520,50558239.1113567
757,0.0
2,4, 1, 4, 0,14, 0.00,60.00,Wednesday      
18,57083767.6478247
520,57083767.6478247
757,0.0
2,4, 1, 4, 0,15, 0.00,60.00,Wednesday      
18,58962831.518762
520,58962831.518762
757,0.0
2,4, 1, 4, 0,16, 0.00,60.00,Wednesday      
18,60663050.6889066
520,60663050.6889066
757,0.0
2,4, 1, 4, 0,17, 0.00,60.00,Wednesday      
18,61986056.3103656
520,61986056.3103656
757,0.0
2,4, 1, 4, 0,18, 0.00,60.00,Wednesday      
18,35035246.153919
520,35035246.153919
757,0.0
2,4, 1, 4, 0,19, 0.00,60.00,Wednesday      
18,23868055.3374372
520,23868055.3374372
757,0.0
2,4, 1, 4, 0,20, 0.00,60.00,Wednesday      
18,22887639.0607061
520,22887639.0607061
757,0.0
2,4, 1, 4, 0,21, 0.00,60.00,Wednesday      
18,18387056.0423909
520,18387056.0423909
757,0.0
2,4, 1, 4, 0,22, 0.00,60.00,Wednesday      
18,17420446.874971
520,17420446.874971
757,0.0
2,4, 1, 4, 0,23, 0.00,60.00,Wednesday      
18,12395520.324
520,12395520.324
757,0.0
2,4, 1, 4, 0,24, 0.00,60.00,Wednesday      
18,10846080.306
520,10846080.306
757,0.0
2,5, 1, 5, 0, 1, 0.00,60.00,Thursday       
18,10846080.306
520,10846080.306
757,0.0
2,5, 1, 5, 0, 2, 0.00,60.00,Thursday       
18,10846080.306
520,10846080.306
757,0.0
2,5, 1, 5, 0, 3, 0.00,60.00,Thursday       
18,10846080.306
520,10846080.306
757,0.0
2,5, 1, 5, 0, 4, 0.00,60.00,Thursday       
18,10846080.306
520,10846080.306
757,0.0
2,5, 1, 5, 0, 5, 0.00,60.00,Thursday       
18,10846080.306
520,10846080.306
757,0.0
2,5, 1, 5, 0, 6, 0.00,60.00,Thursday       
18,12395520.324
520,12395520.324
757,0.0
2,5, 1, 5, 0, 7, 0.00,60.00,Thursday       
18,12395520.324
520,12395520.324
757,0.0
2,5, 1, 5, 0, 8, 0.00,60.00,Thursday       
18,18593280.396
520,18593280.396
757,0.0
2,5, 1, 5, 0, 9, 0.00,60.00,Thursday       
18,48807360.972
520,48807360.972
757,0.0
2,5, 1, 5, 0,10, 0.00,60.00,Thursday       
18,49413943.9147288
520,49413943.9147288
757,0.0
2,5, 1, 5, 0,11, 0.00,60.00,Thursday       
18,50769355.6022604
520,50769355.6022604
757,0.0
2,5, 1, 5, 0,12, 0.00,60.00,Thursday       
18,53518958.5058699
520,53518958.5058699
757,0.0
2,5, 1, 5, 0,13, 0.00,60.00,Thursday       
18,51604705.3410834
520,51604705.3410834
757,0.0
2,5, 1, 5, 0,14, 0.00,60.00,Thursday       
18,58118173.043432
520,58118173.043432
757,0.0
2,5, 1, 5, 0,15, 0.00,60.00,Thursday       
18,59991851.9177755
520,59991851.9177755
757,0.0
2,5, 1, 5, 0,16, 0.00,60.00,Thursday       
18,61648030.3739026
520,61648030.3739026
757,0.0
2,5, 1, 5, 0,17, 0.00,60.00,Thursday       
18,62897819.3841288
520,62897819.3841288
757,0.0
2,5, 1, 5, 0,18, 0.00,60.00,Thursday       
18,35855135.0192138
520,35855135.0192138
757,0.0
2,5, 1, 5, 0,19, 0.00,60.00,Thursday       
18,24534741.3083997
520,24534741.3083997
757,0.0
2,5, 1, 5, 0,20, 0.00,60.00,Thursday       
18,23409310.469484
520,23409310.469484
757,0.0
2,5, 1, 5, 0,21, 0.00,60.00,Thursday       
18,18788900.4865503
520,18788900.4865503
757,0.0
2,5, 1, 5, 0,22, 0.00,60.00,Thursday       
18,17745854.4703439
520,17745854.4703439
757,0.0
2,5, 1, 5, 0,23, 0.00,60.00,Thursday       
18,12395520.324
520,12395520.324
757,0.0
2,5, 1, 5, 0,24, 0.00,60.00,Thursday       
18,10846080.306
520,10846080.306
757,0.0
2,6, 1, 6, 0, 1, 0.00,60.00,Friday         
18,10846080.306
520,10846080.306
757,0.0
2,6, 1, 6, 0, 2, 0.00,60.00,Friday         
18,10846080.306
520,10846080.306
757,0.0
2,6, 1, 6, 0, 3, 0.00,60.00,Friday         
18,10846080.306
520,10846080.306
757,0.0
2,6, 1, 6, 0, 4, 0.00,60.00,Friday         
18,10846080.306
520,10846080.306
757,0.0
2,6, 1, 6, 0, 5, 0.00,60.00,Friday         
18,10846080.306
520,10846080.306
757,0.0
2,6, 1, 6, 0, 6, 0.00,60.00,Friday         
18,12395520.324
520,12395520.324
757,0.0
2,6, 1, 6, 0, 7, 0.00,60.00,Friday         
18,12395520.324
520,12395520.324
757,0.0
2,6, 1, 6, 0, 8, 0.00,60.00,Friday         
18,18593280.396
520,18593280.396
757,0.0
2,6, 1, 6, 0, 9, 0.00,60.00,Friday         
18,48807360.972
520,48807360.972
757,0.0
2,6, 1, 6, 0,10, 0.00,60.00,Friday         
18,49575213.1389958
520,49575213.1389958
757,0.0
2,6, 1, 6, 0,11, 0.00,60.00,Friday         
18,51151693.5633397
520,51151693.5633398
757,0.0
2,6, 1, 6, 0,12, 0.00,60.00,Friday         
18,53872375.1950058
520,53872375.1950059
757,0.0
2,6, 1, 6, 0,13, 0.00,60.00,Friday         
18,51687669.1231516
520,51687669.1231516
757,0.0
2,6, 1, 6, 0,14, 0.00,60.00,Friday         
18,58065802.1207596
520,58065802.1207596
757,0.0
2,6, 1, 6, 0,15, 0.00,60.00,Friday         
18,59863526.201076
520,59863526.2010761
757,0.0
2,6, 1, 6, 0,16, 0.00,60.00,Friday         
18,61556400.2375531
520,61556400.2375531
757,0.0
2,6, 1, 6, 0,17, 0.00,60.00,Friday         
18,62934051.3228601
520,62934051.3228601
757,0.0
2,6, 1, 6, 0,18, 0.00,60.00,Friday         
18,35796126.7939051
520,35796126.7939051
757,0.0
2,6, 1, 6, 0,19, 0.00,60.00,Friday         
18,24441736.8174348
520,24441736.8174348
757,0.0
2,6, 1, 6, 0,20, 0.00,60.00,Friday         
18,23371254.3341912
520,23371254.3341912
757,0.0
2,6, 1, 6, 0,21, 0.00,60.00,Friday         
18,18782773.1102219
520,18782773.1102219
757,0.0
2,6, 1, 6, 0,22, 0.00,60.00,Friday         
18,17767147.2649629
520,17767147.2649629
757,0.0
2,6, 1, 6, 0,23, 0.00,60.00,Friday         
18,12395520.324
520,12395520.324
757,0.0
2,6, 1, 6, 0,24, 0.00,60.00,Friday         
18,10846080.306
520,10846080.306
757,0.0
2,7, 1, 7, 0, 1, 0.00,60.00,Saturday       
18,8521920.234
520,8521920.234
757,0.0
2,7, 1, 7, 0, 2, 0.00,60.00,Saturday       
18,8521920.234
520,8521920.234
757,0.0
2,7, 1, 7, 0, 3, 0.00,60.00,Saturday       
18,8521920.234
520,8521920.234
757,0.0
2,7, 1, 7, 0, 4, 0.00,60.00,Saturday       
18,8521920.234
520,8521920.234
757,0.0
2,7, 1, 7, 0, 5, 0.00,60.00,Saturday       
18,8521920.234
520,8521920.234
757,0.0
2,7, 1, 7, 0, 6, 0.00,60.00,Saturday       
18,8521920.234
520,8521920.234
757,0.0
2,7, 1, 7, 0, 7, 0.00,60.00,Saturday       
18,12395520.324
520,12395520.324
757,0.0
2,7, 1, 7, 0, 8, 0.00,60.00,Saturday       
18,12395520.324
520,12395520.324
757,0.0
2,7, 1, 7, 0, 9, 0.00,60.00,Saturday       
18,20917440.468
520,20917440.468
757,0.0
2,7, 1, 7, 0,10, 0.00,60.00,Saturday       
18,20917440.468
520,20917440.468
757,0.0
2,7, 1, 7, 0,11, 0.00,60.00,Saturday       
18,20917440.468
520,20917440.468
757,0.0
2,7, 1, 7, 0,12, 0.00,60.00,Saturday       
18,20917440.468
520,20917440.468
757,0.0
2,7, 1, 7, 0,13, 0.00,60.00,Saturday       
18,12782880.306
520,12782880.306
757,0.0
2,7, 1, 7, 0,14, 0.00,60.00,Saturday       
18,12782880.306
520,12782880.306
757,0.0
2,7, 1, 7, 0,15, 0.00,60.00,Saturday       
18,12782880.306
520,12782880.306
757,0.0
2,7, 1, 7, 0,16, 0.00,60.00,Saturday       
18,12823047.2015236
520,12823047.2015236
757,0.0
2,7, 1, 7, 0,17, 0.00,60.00,Saturday       
18,13008171.9235132
520,13008171.9235132
757,0.0
2,7, 1, 7, 0,18, 0.00,60.00,Saturday       
18,8797630.74909512
520,8797630.74909512
757,0.0
2,7, 1, 7, 0,19, 0.00,60.00,Saturday       
18,8521920.234
520,8521920.234
757,0.0
2,7, 1, 7, 0,20, 0.00,60.00,Saturday       
18,8521920.234
520,8521920.234
757,0.0
2,7, 1, 7, 0,21, 0.00,60.00,Saturday       
18,8521920.234
520,8521920.234
757,0.0
2,7, 1, 7, 0,22, 0.00,60.00,Saturday       
18,8521920.234
520,8521920.234
757,0.0
2,7, 1, 7, 0,23, 0.00,60.00,Saturday       
18,8521920.234
520,8521920.234
757,0.0
2,7, 1, 7, 0,24, 0.00,60.00,Saturday       
18,8521920.234
520,8521920.234
757,0.0
2,8, 1, 8, 0, 1, 0.00,60.00,Sunday         
18,8521920.234
520,8521920.234
757,0.0
2,8, 1, 8, 0, 2, 0.00,60.00,Sunday         
18,8521920.234
520,8521920.234
757,0.0
2,8, 1, 8, 0, 3, 0.00,60.00,Sunday         
18,8521920.234
520,8521920.234
757,0.0
2,8, 1, 8, 0, 4, 0.00,60.00,Sunday         
18,8521920.234
520,8521920.234
757,0.0
2,8, 1, 8, 0, 5, 0.00,60.00,Sunday         
18,8521920.234
520,8521920.234
757,0.0
2,8, 1, 8, 0, 6, 0.00,60.00,Sunday         
18,8521920.234
520,8521920.234
757,0.0
2,8, 1, 8, 0, 7, 0.00,60.00,Sunday         
18,8521920.234
520,8521920.234
757,0.0
2,8, 1, 8, 0, 8, 0.00,60.00,Sunday         
18,8521920.234
520,8521920.234
757,0.0
2,8, 1, 8, 0, 9, 0.00,60.00,Sunday         
18,8521920.234
520,8521920.234
757,0.0
2,8, 1, 8, 0,10, 0.00,60.00,Sunday         
18,8521920.234
520,8521920.234
757,0.0
2,8, 1, 8, 0,11, 0.00,60.00,Sunday         
18,8521920.234
520,8521920.234
757,0.0
2,8, 1, 8, 0,12, 0.00,60.00,Sunday         
18,8521920.234
520,8521920.234
757,0.0
2,8, 1, 8, 0,13, 0.00,60.00,Sunday         
18,8521920.234
520,8521920.234
757,0.0
2,8, 1, 8, 0,14, 0.00,60.00,Sunday         
18,8521920.234
520,8521920.234
757,0.0
2,8, 1, 8, 0,15, 0.00,60.00,Sunday         
18,8521920.234
520,8521920.234
757,0.0
2,8, 1, 8, 0,16, 0.00,60.00,Sunday         
18,8521920.234
520,8521920.234
757,0.0
2,8, 1, 8, 0,17, 0.00,60.00,Sunday         
18,8521920.234
520,8521920.234
757,0.0
2,8, 1, 8, 0,18, 0.00,60.00,Sunday         
18,8521920.234
520,8521920.234
757,0.0
2,8, 1, 8, 0,19, 0.00,60.00,Sunday         
18,8521920.234
520,8521920.234
757,0.0
2,8, 1, 8, 0,20, 0.00,60.00,Sunday         
18,8521920.234
520,8521920.234
757,0.0
2,8, 1, 8, 0,21, 0.00,60.00,Sunday         
18,8521920.234
520,8521920.234
757,0.0
2,8, 1, 8, 0,22, 0.00,60.00,Sunday         
18,8521920.234
520,8521920.234
757,0.0
2,8, 1, 8, 0,23, 0.00,60.00,Sunday         
18,8521920.234
520,8521920.234
757,0.0
2,8, 1, 8, 0,24, 0.00,60.00,Sunday         
18,8521920.234
520,8521920.234
757,0.0
2,9, 1, 9, 0, 1, 0.00,60.00,Monday         
18,10846080.306
520,10846080.306
757,0.0
2,9, 1, 9, 0, 2, 0.00,60.00,Monday         
18,10846080.306
520,10846080.306
757,0.0
2,9, 1, 9, 0, 3, 0.00,60.00,Monday         
18,10846080.306
520,10846080.306
757,0.0
2,9, 1, 9, 0, 4, 0.00,60.00,Monday         
18,10846080.306
520,10846080.306
757,0.0
2,9, 1, 9, 0, 5, 0.00,60.00,Monday         
18,10846080.306
520,10846080.306
757,0.0
2,9, 1, 9, 0, 6, 0.00,60.00,Monday         
18,12395520.324
520,12395520.324
757,0.0
2,9, 1, 9, 0, 7, 0.00,60.00,Monday         
18,12395520.324
520,12395520.324
757,0.0
2,9, 1, 9, 0, 8, 0.00,60.00,Monday         
18,18593280.396
520,18593280.396
757,0.0
2,9, 1, 9, 0, 9, 0.00,60.00,Monday         
18,48807360.972
520,48807360.972
757,0.0
2,9, 1, 9, 0,10, 0.00,60.00,Monday         
18,48807360.972
520,48807360.972
757,0.0
2,9, 1, 9, 0,11, 0.00,60.00,Monday         
18,49132701.1166573
520,49132701.1166573
757,0.0
2,9, 1, 9, 0,12, 0.00,60.00,Monday         
18,51698750.458924
520,51698750.458924
757,0.0
2,9, 1, 9, 0,13, 0.00,60.00,Monday         
18,50355411.9895073
520,50355411.9895073
757,0.0
2,9, 1, 9, 0,14, 0.00,60.00,Monday         
18,58393607.1594068
520,58393607.1594068
757,0.0
2,9, 1, 9, 0,15, 0.00,60.00,Monday         
18,60682375.5285145
520,60682375.5285145
757,0.0
2,9, 1, 9, 0,16, 0.00,60.00,Monday         
18,62559093.839795
520,62559093.839795
757,0.0
2,9, 1, 9, 0,17, 0.00,60.00,Monday         
18,64084519.8508337
520,64084519.8508337
757,0.0
2,9, 1, 9, 0,18, 0.00,60.00,Monday         
18,36259191.2823987
520,36259191.2823987
757,0.0
2,9, 1, 9, 0,19, 0.00,60.00,Monday         
18,24665229.0769344
520,24665229.0769344
757,0.0
2,9, 1, 9, 0,20, 0.00,60.00,Monday         
18,23553575.862788
520,23553575.862788
757,0.0
2,9, 1, 9, 0,21, 0.00,60.00,Monday         
18,18958970.8346334
520,18958970.8346334
757,0.0
2,9, 1, 9, 0,22, 0.00,60.00,Monday         
18,17951733.8278463
520,17951733.8278463
757,0.0
2,9, 1, 9, 0,23, 0.00,60.00,Monday         
18,12395520.324
520,12395520.324
757,0.0
2,9, 1, 9, 0,24, 0.00,60.00,Monday         
18,10846080.306
520,10846080.306
757,0.0
2,10, 1,10, 0, 1, 0.00,60.00,Tuesday        
18,10846080.306
520,10846080.306
757,0.0
2,10, 1,10, 0, 2, 0.00,60.00,Tuesday        
18,10846080.306
520,10846080.306
757,0.0
2,10, 1,10, 0, 3, 0.00,60.00,Tuesday        
18,10846080.306
520,10846080.306
757,0.0
2,10, 1,10, 0, 4, 0.00,60.00,Tuesday        
18,10846080.306
520,10846080.306
757,0.0
2,10, 1,10, 0, 5, 0.00,60.00,Tuesday        
18,10846080.306
520,10846080.306
757,0.0
2,10, 1,10, 0, 6, 0.00,60.00,Tuesday        
18,12395520.324
520,12395520.324
757,0.0
2,10, 1,10, 0, 7, 0.00,60.00,Tuesday        
18,12395520.324
520,12395520.324
757,0.0
2,10, 1,10, 0, 8, 0.00,60.00,Tuesday        
18,18593280.396
520,18593280.396
757,0.0
2,10, 1,10, 0, 9, 0.00,60.00,Tuesday        
18,50478791.2659381
520,50478791.2659381
757,0.0
2,10, 1,10, 0,10, 0.00,60.00,Tuesday        
18,54861481.1688508
520,54861481.1688508
757,0.0
2,10, 1,10, 0,11, 0.00,60.00,Tuesday        
18,57207011.3647681
520,57207011.3647681
757,0.0
2,10, 1,10, 0,12, 0.00,60.00,Tuesday        
18,58790880.6017291
520,58790880.6017291
757,0.0
2,10, 1,10, 0,13, 0.00,60.00,Tuesday        
18,55320313.8550857
520,55320313.8550857
757,0.0
2,10, 1,10, 0,14, 0.00,60.00,Tuesday        
18,61423538.7688496
520,61423538.7688496
757,0.0
2,10, 1,10, 0,15, 0.00,60.00,Tuesday        
18,63105084.9699148
520,63105084.9699148
757,0.0
2,10, 1,10, 0,16, 0.00,60.00,Tuesday        
18,64578750.1942371
520,64578750.1942371
757,0.0
2,10, 1,10, 0,17, 0.00,60.00,Tuesday        
18,65696952.0970963
520,65696952.0970963
757,0.0
2,10, 1,10, 0,18, 0.00,60.00,Tuesday        
18,37836767.1408902
520,37836767.1408902
757,0.0
2,10, 1,10, 0,19, 0.00,60.00,Tuesday        
18,26121469.6667123
520,26121469.6667123
757,0.0
2,10, 1,10, 0,20, 0.00,60.00,Tuesday        
18,24904310.2462528
520,24904310.2462528
757,0.0
2,10, 1,10, 0,21, 0.00,60.00,Tuesday        
18,20120527.208832
520,20120527.208832
757,0.0
2,10, 1,10, 0,22, 0.00,60.00,Tuesday        
18,18921263.6494276
520,18921263.6494276
757,0.0
2,10, 1,10, 0,23, 0.00,60.00,Tuesday        
18,12395520.324
520,12395520.324
757,0.0
2,10, 1,10, 0,24, 0.00,60.00,Tuesday        
18,10846080.306
520,10846080.306
757,0.0
2,11, 1,11, 0, 1, 0.00,60.00,Wednesday      
18,10846080.306
520,10846080.306
757,0.0
2,11, 1,11, 0, 2, 0.00,60.00,Wednesday      
18,10846080.306
520,10846080.306
757,0.0
2,11, 1,11, 0, 3, 0.00,60.00,Wednesday      
18,10846080.306
520,10846080.306
757,0.0
2,11, 1,11, 0, 4, 0.00,60.00,Wednesday      
18,10846080.306
520,10846080.306
757,0.0
2,11, 1,11, 0, 5, 0.00,60.00,Wednesday      
18,10846080.306
520,10846080.306
757,0.0
2,11, 1,11, 0, 6, 0.00,60.00,Wednesday      
18,12395520.324
520,12395520.324
757,0.0
2,11, 1,11, 0, 7, 0.00,60.00,Wednesday      
18,12395520.324
520,12395520.324
757,0.0
2,11, 1,11, 0, 8, 0.00,60.00,Wednesday      
18,18593280.396
520,18593280.396
757,0.0
2,11, 1,11, 0, 9, 0.00,60.00,Wednesday      
18,52802126.4133343
520,52802126.4133343
757,0.0
2,11, 1,11, 0,10, 0.00,60.00,Wednesday      
18,56996025.1887578
520,56996025.1887578
757,0.0
2,11, 1,11, 0,11, 0.00,60.00,Wednesday      
18,58412439.5503853
520,58412439.5503853
757,0.0
2,11, 1,11, 0,12, 0.00,60.00,Wednesday      
18,59272166.6202552
520,59272166.6202552
757,0.0
2,11, 1,11, 0,13, 0.00,60.00,Wednesday      
18,55326268.2762251
520,55326268.2762251
757,0.0
2,11, 1,11, 0,14, 0.00,60.00,Wednesday      
18,61031367.5223843
520,61031367.5223843
757,0.0
2,11, 1,11, 0,15, 0.00,60.00,Wednesday      
18,62475830.1022751
520,62475830.1022751
757,0.0
2,11, 1,11, 0,16, 0.00,60.00,Wednesday      
18,63858071.3703685
520,63858071.3703685
757,0.0
2,11, 1,11, 0,17, 0.00,60.00,Wednesday      
18,65070519.5819069
520,65070519.5819069
757,0.0
2,11, 1,11, 0,18, 0.00,60.00,Wednesday      
18,37459839.2836354
520,37459839.2836354
757,0.0
2,11, 1,11, 0,19, 0.00,60.00,Wednesday      
18,25842596.9794897
520,25842596.9794897
757,0.0
2,11, 1,11, 0,20, 0.00,60.00,Wednesday      
18,24602024.0481105
520,24602024.0481105
757,0.0
2,11, 1,11, 0,21, 0.00,60.00,Wednesday      
18,19847021.7060803
520,19847021.7060803
757,0.0
2,11, 1,11, 0,22, 0.00,60.00,Wednesday      
18,18679995.8722306
520,18679995.8722306
757,0.0
2,11, 1,11, 0,23, 0.00,60.00,Wednesday      
18,12395520.324
520,12395520.324
757,0.0
2,11, 1,11, 0,24, 0.00,60.00,Wednesday      
18,10846080.306
520,10846080.306
757,0.0
2,12, 1,12, 0, 1, 0.00,60.00,Thursday       
18,10846080.306
520,10846080.306
757,0.0
2,12, 1,12, 0, 2, 0.00,60.00,Thursday       
18,10846080.306
520,10846080.306
757,0.0
2,12, 1,12, 0, 3, 0.00,60.00,Thursday       
18,10846080.306
520,10846080.306
757,0.0
2,12, 1,12, 0, 4, 0.00,60.00,Thursday       
18,10846080.306
520,10846080.306
757,0.0
2,12, 1,12, 0, 5, 0.00,60.00,Thursday       
18,10846080.306
520,10846080.306
757,0.0
2,12, 1,12, 0, 6, 0.00,60.00,Thursday       
18,12395520.324
520,12395520.324
757,0.0
2,12, 1,12, 0, 7, 0.00,60.00,Thursday       
18,12395520.324
520,12395520.324
757,0.0
2,12, 1,12, 0, 8, 0.00,60.00,Thursday       
18,18593280.396
520,18593280.396
757,0.0
2,12, 1,12, 0, 9, 0.00,60.00,Thursday       
18,51775425.1812333
520,51775425.1812333
757,0.0
2,12, 1,12, 0,10, 0.00,60.00,Thursday       
18,56281693.3168984
520,56281693.3168984
757,0.0
2,12, 1,12, 0,11, 0.00,60.00,Thursday       
18,57989743.9792649
520,57989743.9792649
757,0.0
2,12, 1,12, 0,12, 0.00,60.00,Thursday       
18,59133096.0249545
520,59133096.0249545
757,0.0
2,12, 1,12, 0,13, 0.00,60.00,Thursday       
18,55486600.6039863
520,55486600.6039863
757,0.0
2,12, 1,12, 0,14, 0.00,60.00,Thursday       
18,61589795.0175894
520,61589795.0175894
757,0.0
2,12, 1,12, 0,15, 0.00,60.00,Thursday       
18,63301752.4811629
520,63301752.4811629
757,0.0
2,12, 1,12, 0,16, 0.00,60.00,Thursday       
18,64837068.1988275
520,64837068.1988275
757,0.0
2,12, 1,12, 0,17, 0.00,60.00,Thursday       
18,65912798.6619539
520,65912798.6619539
757,0.0
2,12, 1,12, 0,18, 0.00,60.00,Thursday       
18,37765188.6316352
520,37765188.6316352
757,0.0
2,12, 1,12, 0,19, 0.00,60.00,Thursday       
18,25792349.0319195
520,25792349.0319195
757,0.0
2,12, 1,12, 0,20, 0.00,60.00,Thursday       
18,24506515.7968549
520,24506515.7968549
757,0.0
2,12, 1,12, 0,21, 0.00,60.00,Thursday       
18,19738194.9182726
520,19738194.9182726
757,0.0
2,12, 1,12, 0,22, 0.00,60.00,Thursday       
18,18600132.637896
520,18600132.637896
757,0.0
2,12, 1,12, 0,23, 0.00,60.00,Thursday       
18,12395520.324
520,12395520.324
757,0.0
2,12, 1,12, 0,24, 0.00,60.00,Thursday       
18,10846080.306
520,10846080.306
757,0.0
2,13, 1,13, 0, 1, 0.00,60.00,Friday         
18,10846080.306
520,10846080.306
757,0.0
2,13, 1,13, 0, 2, 0.00,60.00,Friday         
18,10846080.306
520,10846080.306
757,0.0
2,13, 1,13, 0, 3, 0.00,60.00,Friday         
18,10846080.306
520,10846080.306
757,0.0
2,13, 1,13, 0, 4, 0.00,60.00,Friday         
18,10846080.306
520,10846080.306
757,0.0
2,13, 1,13, 0, 5, 0.00,60.00,Friday         
18,10846080.306