Program Version,EnergyPlus-Linux-64 8.1.0.009, YMD=2014.08.29 09:27
1,5,Environment Title[],Latitude[deg],Longitude[deg],Time Zone[],Elevation[m]
2,6,Day of Simulation[],Month[],Day of Month[],DST Indicator[1=yes 0=no],Hour[],StartMinute[],EndMinute[],DayType
3,3,Cumulative Day of Simulation[],Month[],Day of Month[],DST Indicator[1=yes 0=no],DayType  ! When Daily Meters Requested
4,2,Cumulative Days of Simulation[],Month[]  ! When Monthly Meters Requested
5,1,Cumulative Days of Simulation[] ! When Run Period Meters Requested
21,11,Electricity:Facility [J] !RunPeriod [Value,Min,Month,Day,Hour,Minute,Max,Month,Day,Hour,Minute]
461,11,ElectricityPurchased:Facility [J] !RunPeriod [Value,Min,Month,Day,Hour,Minute,Max,Month,Day,Hour,Minute]
492,11,ElectricitySurplusSold:Facility [J] !RunPeriod [Value,Min,Month,Day,Hour,Minute,Max,Month,Day,Hour,Minute]
523,11,ElectricityNet:Facility [J] !RunPeriod [Value,Min,Month,Day,Hour,Minute,Max,Month,Day,Hour,Minute]
833,11,Source:Facility [J] !RunPeriod [Value,Min,Month,Day,Hour,Minute,Max,Month,Day,Hour,Minute]
854,11,CO2:Facility [kg] !RunPeriod [Value,Min,Month,Day,Hour,Minute,Max,Month,Day,Hour,Minute]
31,11,Electricity:Building [J] !RunPeriod [Value,Min,Month,Day,Hour,Minute,Max,Month,Day,Hour,Minute]
724,11,Electricity:Plant [J] !RunPeriod [Value,Min,Month,Day,Hour,Minute,Max,Month,Day,Hour,Minute]
599,11,Electricity:HVAC [J] !RunPeriod [Value,Min,Month,Day,Hour,Minute,Max,Month,Day,Hour,Minute]
51,11,InteriorLights:Electricity [J] !RunPeriod [Value,Min,Month,Day,Hour,Minute,Max,Month,Day,Hour,Minute]
166,11,InteriorEquipment:Electricity [J] !RunPeriod [Value,Min,Month,Day,Hour,Minute,Max,Month,Day,Hour,Minute]
609,11,Fans:Electricity [J] !RunPeriod [Value,Min,Month,Day,Hour,Minute,Max,Month,Day,Hour,Minute]
705,11,Cooling:Electricity [J] !RunPeriod [Value,Min,Month,Day,Hour,Minute,Max,Month,Day,Hour,Minute]
822,11,Pumps:Electricity [J] !RunPeriod [Value,Min,Month,Day,Hour,Minute,Max,Month,Day,Hour,Minute]
801,11,Heating:Electricity [J] !RunPeriod [Value,Min,Month,Day,Hour,Minute,Max,Month,Day,Hour,Minute]
760,11,Gas:Facility [J] !RunPeriod [Value,Min,Month,Day,Hour,Minute,Max,Month,Day,Hour,Minute]
780,11,Heating:Gas [J] !RunPeriod [Value,Min,Month,Day,Hour,Minute,Max,Month,Day,Hour,Minute]
770,11,Gas:Plant [J] !RunPeriod [Value,Min,Month,Day,Hour,Minute,Max,Month,Day,Hour,Minute]
18,1,Electricity:Facility [J] !Hourly
520,1,ElectricityNet:Facility [J] !Hourly
757,1,Gas:Facility [J] !Hourly
20,9,Electricity:Facility [J] !Monthly  [Value,Min,Day,Hour,Minute,Max,Day,Hour,Minute]
759,9,Gas:Facility [J] !Monthly  [Value,Min,Day,Hour,Minute,Max,Day,Hour,Minute]
853,9,CO2:Facility [kg] !Monthly  [Value,Min,Day,Hour,Minute,Max,Day,Hour,Minute]
874,9,CO:Facility [kg] !Monthly  [Value,Min,Day,Hour,Minute,Max,Day,Hour,Minute]
895,9,CH4:Facility [kg] !Monthly  [Value,Min,Day,Hour,Minute,Max,Day,Hour,Minute]
916,9,NOx:Facility [kg] !Monthly  [Value,Min,Day,Hour,Minute,Max,Day,Hour,Minute]
937,9,N2O:Facility [kg] !Monthly  [Value,Min,Day,Hour,Minute,Max,Day,Hour,Minute]
958,9,SO2:Facility [kg] !Monthly  [Value,Min,Day,Hour,Minute,Max,Day,Hour,Minute]
979,9,PM:Facility [kg] !Monthly  [Value,Min,Day,Hour,Minute,Max,Day,Hour,Minute]
1000,9,PM10:Facility [kg] !Monthly  [Value,Min,Day,Hour,Minute,Max,Day,Hour,Minute]
1021,9,PM2.5:Facility [kg] !Monthly  [Value,Min,Day,Hour,Minute,Max,Day,Hour,Minute]
1042,9,NH3:Facility [kg] !Monthly  [Value,Min,Day,Hour,Minute,Max,Day,Hour,Minute]
1063,9,NMVOC:Facility [kg] !Monthly  [Value,Min,Day,Hour,Minute,Max,Day,Hour,Minute]
1084,9,Hg:Facility [kg] !Monthly  [Value,Min,Day,Hour,Minute,Max,Day,Hour,Minute]
1105,9,Pb:Facility [kg] !Monthly  [Value,Min,Day,Hour,Minute,Max,Day,Hour,Minute]
1126,9,WaterEnvironmentalFactors:Facility [L] !Monthly  [Value,Min,Day,Hour,Minute,Max,Day,Hour,Minute]
1147,9,Nuclear High:Facility [kg] !Monthly  [Value,Min,Day,Hour,Minute,Max,Day,Hour,Minute]
1168,9,Nuclear Low:Facility [m3] !Monthly  [Value,Min,Day,Hour,Minute,Max,Day,Hour,Minute]
1772,9,Carbon Equivalent:Facility [kg] !Monthly  [Value,Min,Day,Hour,Minute,Max,Day,Hour,Minute]
End of Data Dictionary
1,Hyderabad Andhra Pradesh IND ISHRAE WMO#=431280,  17.45,  78.47,   5.50, 545.00
2,1, 1, 1, 0, 1, 0.00,60.00,Holiday        
18,8521920.234
520,8521920.234
757,0.0
2,1, 1, 1, 0, 2, 0.00,60.00,Holiday        
18,8521920.234
520,8521920.234
757,0.0
2,1, 1, 1, 0, 3, 0.00,60.00,Holiday        
18,8521920.234
520,8521920.234
757,0.0
2,1, 1, 1, 0, 4, 0.00,60.00,Holiday        
18,8521920.234
520,8521920.234
757,0.0
2,1, 1, 1, 0, 5, 0.00,60.00,Holiday        
18,8521920.234
520,8521920.234
757,0.0
2,1, 1, 1, 0, 6, 0.00,60.00,Holiday        
18,8521920.234
520,8521920.234
757,0.0
2,1, 1, 1, 0, 7, 0.00,60.00,Holiday        
18,8521920.234
520,8521920.234
757,0.0
2,1, 1, 1, 0, 8, 0.00,60.00,Holiday        
18,8292195.3315
520,8292195.3315
757,0.0
2,1, 1, 1, 0, 9, 0.00,60.00,Holiday        
18,7935175.764
520,7935175.764
757,0.0
2,1, 1, 1, 0,10, 0.00,60.00,Holiday        
18,7935175.764
520,7935175.764
757,0.0
2,1, 1, 1, 0,11, 0.00,60.00,Holiday        
18,7882909.569
520,7882909.569
757,0.0
2,1, 1, 1, 0,12, 0.00,60.00,Holiday        
18,7830643.374
520,7830643.374
757,0.0
2,1, 1, 1, 0,13, 0.00,60.00,Holiday        
18,7830643.374
520,7830643.374
757,0.0
2,1, 1, 1, 0,14, 0.00,60.00,Holiday        
18,7882909.569
520,7882909.569
757,0.0
2,1, 1, 1, 0,15, 0.00,60.00,Holiday        
18,7935175.764
520,7935175.764
757,0.0
2,1, 1, 1, 0,16, 0.00,60.00,Holiday        
18,7935175.764
520,7935175.764
757,0.0
2,1, 1, 1, 0,17, 0.00,60.00,Holiday        
18,7946556.9015
520,7946556.9015
757,0.0
2,1, 1, 1, 0,18, 0.00,60.00,Holiday        
18,8247939.4515
520,8247939.4515
757,0.0
2,1, 1, 1, 0,19, 0.00,60.00,Holiday        
18,8521920.234
520,8521920.234
757,0.0
2,1, 1, 1, 0,20, 0.00,60.00,Holiday        
18,8521920.234
520,8521920.234
757,0.0
2,1, 1, 1, 0,21, 0.00,60.00,Holiday        
18,8521920.234
520,8521920.234
757,0.0
2,1, 1, 1, 0,22, 0.00,60.00,Holiday        
18,8521920.234
520,8521920.234
757,0.0
2,1, 1, 1, 0,23, 0.00,60.00,Holiday        
18,8521920.234
520,8521920.234
757,0.0
2,1, 1, 1, 0,24, 0.00,60.00,Holiday        
18,8521920.234
520,8521920.234
757,0.0
2,2, 1, 2, 0, 1, 0.00,60.00,Monday         
18,10846080.306
520,10846080.306
757,0.0
2,2, 1, 2, 0, 2, 0.00,60.00,Monday         
18,10846080.306
520,10846080.306
757,0.0
2,2, 1, 2, 0, 3, 0.00,60.00,Monday         
18,10846080.306
520,10846080.306
757,0.0
2,2, 1, 2, 0, 4, 0.00,60.00,Monday         
18,10846080.306
520,10846080.306
757,0.0
2,2, 1, 2, 0, 5, 0.00,60.00,Monday         
18,10846080.306
520,10846080.306
757,0.0
2,2, 1, 2, 0, 6, 0.00,60.00,Monday         
18,15129926.7084985
520,15129926.7084985
757,5168535.00386119
2,2, 1, 2, 0, 7, 0.00,60.00,Monday         
18,13747228.2390446
520,13747228.2390446
757,3282129.15982356
2,2, 1, 2, 0, 8, 0.00,60.00,Monday         
18,18364385.311162
520,18364385.311162
757,2263850.97502506
2,2, 1, 2, 0, 9, 0.00,60.00,Monday         
18,38755578.4782997
520,38755578.4782997
757,0.0
2,2, 1, 2, 0,10, 0.00,60.00,Monday         
18,39578268.9273896
520,39578268.9273896
757,0.0
2,2, 1, 2, 0,11, 0.00,60.00,Monday         
18,37668227.008014
520,37668227.008014
757,0.0
2,2, 1, 2, 0,12, 0.00,60.00,Monday         
18,38723230.2265063
520,38723230.2265063
757,0.0
2,2, 1, 2, 0,13, 0.00,60.00,Monday         
18,38146809.3514751
520,38146809.3514751
757,0.0
2,2, 1, 2, 0,14, 0.00,60.00,Monday         
18,45247012.7935358
520,45247012.7935358
757,0.0
2,2, 1, 2, 0,15, 0.00,60.00,Monday         
18,50446698.3203478
520,50446698.3203478
757,0.0
2,2, 1, 2, 0,16, 0.00,60.00,Monday         
18,53294894.3164141
520,53294894.3164141
757,0.0
2,2, 1, 2, 0,17, 0.00,60.00,Monday         
18,61051894.1104321
520,61051894.1104321
757,0.0
2,2, 1, 2, 0,18, 0.00,60.00,Monday         
18,38633019.177678
520,38633019.177678
757,0.0
2,2, 1, 2, 0,19, 0.00,60.00,Monday         
18,24001672.590223
520,24001672.590223
757,0.0
2,2, 1, 2, 0,20, 0.00,60.00,Monday         
18,20992112.4651463
520,20992112.4651463
757,0.0
2,2, 1, 2, 0,21, 0.00,60.00,Monday         
18,16108202.8724818
520,16108202.8724818
757,0.0
2,2, 1, 2, 0,22, 0.00,60.00,Monday         
18,15551923.8120361
520,15551923.8120361
757,0.0
2,2, 1, 2, 0,23, 0.00,60.00,Monday         
18,12395520.324
520,12395520.324
757,0.0
2,2, 1, 2, 0,24, 0.00,60.00,Monday         
18,10846080.306
520,10846080.306
757,0.0
2,3, 1, 3, 0, 1, 0.00,60.00,Tuesday        
18,10846080.306
520,10846080.306
757,0.0
2,3, 1, 3, 0, 2, 0.00,60.00,Tuesday        
18,10846080.306
520,10846080.306
757,0.0
2,3, 1, 3, 0, 3, 0.00,60.00,Tuesday        
18,10846080.306
520,10846080.306
757,0.0
2,3, 1, 3, 0, 4, 0.00,60.00,Tuesday        
18,10846080.306
520,10846080.306
757,0.0
2,3, 1, 3, 0, 5, 0.00,60.00,Tuesday        
18,10846080.306
520,10846080.306
757,0.0
2,3, 1, 3, 0, 6, 0.00,60.00,Tuesday        
18,15089672.9802337
520,15089672.9802337
757,9852871.35989314
2,3, 1, 3, 0, 7, 0.00,60.00,Tuesday        
18,13954386.017219
520,13954386.017219
757,4972175.99944318
2,3, 1, 3, 0, 8, 0.00,60.00,Tuesday        
18,18437657.8894715
520,18437657.8894715
757,3585152.46104249
2,3, 1, 3, 0, 9, 0.00,60.00,Tuesday        
18,38593470.2392324
520,38593470.2392324
757,116592.467843177
2,3, 1, 3, 0,10, 0.00,60.00,Tuesday        
18,39450604.9957433
520,39450604.9957433
757,0.0
2,3, 1, 3, 0,11, 0.00,60.00,Tuesday        
18,37552203.1464694
520,37552203.1464694
757,0.0
2,3, 1, 3, 0,12, 0.00,60.00,Tuesday        
18,38314444.9422219
520,38314444.9422219
757,0.0
2,3, 1, 3, 0,13, 0.00,60.00,Tuesday        
18,37685384.797452
520,37685384.797452
757,0.0
2,3, 1, 3, 0,14, 0.00,60.00,Tuesday        
18,45069667.4690377
520,45069667.4690377
757,0.0
2,3, 1, 3, 0,15, 0.00,60.00,Tuesday        
18,50160061.2027424
520,50160061.2027424
757,0.0
2,3, 1, 3, 0,16, 0.00,60.00,Tuesday        
18,54107196.9755213
520,54107196.9755213
757,0.0
2,3, 1, 3, 0,17, 0.00,60.00,Tuesday        
18,54371138.7397894
520,54371138.7397894
757,0.0
2,3, 1, 3, 0,18, 0.00,60.00,Tuesday        
18,36863746.4390565
520,36863746.4390565
757,0.0
2,3, 1, 3, 0,19, 0.00,60.00,Tuesday        
18,23588873.2438583
520,23588873.2438583
757,0.0
2,3, 1, 3, 0,20, 0.00,60.00,Tuesday        
18,20818624.434451
520,20818624.434451
757,0.0
2,3, 1, 3, 0,21, 0.00,60.00,Tuesday        
18,16144449.9440581
520,16144449.9440581
757,0.0
2,3, 1, 3, 0,22, 0.00,60.00,Tuesday        
18,15597265.34081
520,15597265.34081
757,0.0
2,3, 1, 3, 0,23, 0.00,60.00,Tuesday        
18,12395520.324
520,12395520.324
757,0.0
2,3, 1, 3, 0,24, 0.00,60.00,Tuesday        
18,10846080.306
520,10846080.306
757,0.0
2,4, 1, 4, 0, 1, 0.00,60.00,Wednesday      
18,10846080.306
520,10846080.306
757,0.0
2,4, 1, 4, 0, 2, 0.00,60.00,Wednesday      
18,10846080.306
520,10846080.306
757,0.0
2,4, 1, 4, 0, 3, 0.00,60.00,Wednesday      
18,10846080.306
520,10846080.306
757,0.0
2,4, 1, 4, 0, 4, 0.00,60.00,Wednesday      
18,10846080.306
520,10846080.306
757,0.0
2,4, 1, 4, 0, 5, 0.00,60.00,Wednesday      
18,10846080.306
520,10846080.306
757,0.0
2,4, 1, 4, 0, 6, 0.00,60.00,Wednesday      
18,14439807.2867252
520,14439807.2867252
757,7459672.03165158
2,4, 1, 4, 0, 7, 0.00,60.00,Wednesday      
18,13505180.6415829
520,13505180.6415829
757,3076363.0681859
2,4, 1, 4, 0, 8, 0.00,60.00,Wednesday      
18,17918787.0321764
520,17918787.0321764
757,1528049.25440183
2,4, 1, 4, 0, 9, 0.00,60.00,Wednesday      
18,38245960.512
520,38245960.512
757,0.0
2,4, 1, 4, 0,10, 0.00,60.00,Wednesday      
18,38734150.2549463
520,38734150.2549463
757,0.0
2,4, 1, 4, 0,11, 0.00,60.00,Wednesday      
18,38908195.9817347
520,38908195.9817347
757,0.0
2,4, 1, 4, 0,12, 0.00,60.00,Wednesday      
18,40628377.1908316
520,40628377.1908316
757,0.0
2,4, 1, 4, 0,13, 0.00,60.00,Wednesday      
18,38156717.7483252
520,38156717.7483252
757,0.0
2,4, 1, 4, 0,14, 0.00,60.00,Wednesday      
18,45581047.2040528
520,45581047.2040528
757,0.0
2,4, 1, 4, 0,15, 0.00,60.00,Wednesday      
18,49555955.0604944
520,49555955.0604944
757,0.0
2,4, 1, 4, 0,16, 0.00,60.00,Wednesday      
18,51700900.6292915
520,51700900.6292915
757,0.0
2,4, 1, 4, 0,17, 0.00,60.00,Wednesday      
18,55146950.7465586
520,55146950.7465586
757,0.0
2,4, 1, 4, 0,18, 0.00,60.00,Wednesday      
18,35963344.4703609
520,35963344.4703609
757,0.0
2,4, 1, 4, 0,19, 0.00,60.00,Wednesday      
18,22855769.5237603
520,22855769.5237602
757,0.0
2,4, 1, 4, 0,20, 0.00,60.00,Wednesday      
18,20274004.0716813
520,20274004.0716813
757,0.0
2,4, 1, 4, 0,21, 0.00,60.00,Wednesday      
18,15926563.8706938
520,15926563.8706938
757,0.0
2,4, 1, 4, 0,22, 0.00,60.00,Wednesday      
18,15518586.6093917
520,15518586.6093917
757,0.0
2,4, 1, 4, 0,23, 0.00,60.00,Wednesday      
18,12395520.324
520,12395520.324
757,0.0
2,4, 1, 4, 0,24, 0.00,60.00,Wednesday      
18,10846080.306
520,10846080.306
757,0.0
2,5, 1, 5, 0, 1, 0.00,60.00,Thursday       
18,10846080.306
520,10846080.306
757,0.0
2,5, 1, 5, 0, 2, 0.00,60.00,Thursday       
18,10846080.306
520,10846080.306
757,0.0
2,5, 1, 5, 0, 3, 0.00,60.00,Thursday       
18,10846080.306
520,10846080.306
757,0.0
2,5, 1, 5, 0, 4, 0.00,60.00,Thursday       
18,10846080.306
520,10846080.306
757,0.0
2,5, 1, 5, 0, 5, 0.00,60.00,Thursday       
18,10846080.306
520,10846080.306
757,0.0
2,5, 1, 5, 0, 6, 0.00,60.00,Thursday       
18,14397522.7743745
520,14397522.7743745
757,6768253.20691532
2,5, 1, 5, 0, 7, 0.00,60.00,Thursday       
18,13466316.2231536
520,13466316.2231536
757,2786096.56027766
2,5, 1, 5, 0, 8, 0.00,60.00,Thursday       
18,17942922.8256701
520,17942922.8256701
757,1519738.14432864
2,5, 1, 5, 0, 9, 0.00,60.00,Thursday       
18,38245960.512
520,38245960.512
757,0.0
2,5, 1, 5, 0,10, 0.00,60.00,Thursday       
18,39020105.4339043
520,39020105.4339043
757,0.0
2,5, 1, 5, 0,11, 0.00,60.00,Thursday       
18,37685953.6839805
520,37685953.6839805
757,0.0
2,5, 1, 5, 0,12, 0.00,60.00,Thursday       
18,39190705.7321288
520,39190705.7321288
757,0.0
2,5, 1, 5, 0,13, 0.00,60.00,Thursday       
18,40558432.5972489
520,40558432.5972489
757,0.0
2,5, 1, 5, 0,14, 0.00,60.00,Thursday       
18,47474490.0881048
520,47474490.0881048
757,0.0
2,5, 1, 5, 0,15, 0.00,60.00,Thursday       
18,51429812.4588421
520,51429812.4588421
757,0.0
2,5, 1, 5, 0,16, 0.00,60.00,Thursday       
18,56138609.0126155
520,56138609.0126155
757,0.0
2,5, 1, 5, 0,17, 0.00,60.00,Thursday       
18,60554192.8558233
520,60554192.8558232
757,0.0
2,5, 1, 5, 0,18, 0.00,60.00,Thursday       
18,38296543.6952094
520,38296543.6952094
757,0.0
2,5, 1, 5, 0,19, 0.00,60.00,Thursday       
18,23810710.8517116
520,23810710.8517116
757,0.0
2,5, 1, 5, 0,20, 0.00,60.00,Thursday       
18,20946716.3016367
520,20946716.3016367
757,0.0
2,5, 1, 5, 0,21, 0.00,60.00,Thursday       
18,16243829.0649762
520,16243829.0649762
757,0.0
2,5, 1, 5, 0,22, 0.00,60.00,Thursday       
18,15648586.6201743
520,15648586.6201743
757,0.0
2,5, 1, 5, 0,23, 0.00,60.00,Thursday       
18,12395520.324
520,12395520.324
757,0.0
2,5, 1, 5, 0,24, 0.00,60.00,Thursday       
18,10846080.306
520,10846080.306
757,0.0
2,6, 1, 6, 0, 1, 0.00,60.00,Friday         
18,10846080.306
520,10846080.306
757,0.0
2,6, 1, 6, 0, 2, 0.00,60.00,Friday         
18,10846080.306
520,10846080.306
757,0.0
2,6, 1, 6, 0, 3, 0.00,60.00,Friday         
18,10846080.306
520,10846080.306
757,0.0
2,6, 1, 6, 0, 4, 0.00,60.00,Friday         
18,10846080.306
520,10846080.306
757,0.0
2,6, 1, 6, 0, 5, 0.00,60.00,Friday         
18,10846080.306
520,10846080.306
757,0.0
2,6, 1, 6, 0, 6, 0.00,60.00,Friday         
18,13605808.1977002
520,13605808.1977002
757,3175756.77869572
2,6, 1, 6, 0, 7, 0.00,60.00,Friday         
18,13089290.7407422
520,13089290.7407422
757,1404044.60905369
2,6, 1, 6, 0, 8, 0.00,60.00,Friday         
18,17643923.4962503
520,17643923.4962503
757,627822.392143691
2,6, 1, 6, 0, 9, 0.00,60.00,Friday         
18,38245960.512
520,38245960.512
757,0.0
2,6, 1, 6, 0,10, 0.00,60.00,Friday         
18,38700139.4781347
520,38700139.4781347
757,0.0
2,6, 1, 6, 0,11, 0.00,60.00,Friday         
18,39196956.9375065
520,39196956.9375065
757,0.0
2,6, 1, 6, 0,12, 0.00,60.00,Friday         
18,40671819.959846
520,40671819.959846
757,0.0
2,6, 1, 6, 0,13, 0.00,60.00,Friday         
18,40944983.3098675
520,40944983.3098675
757,0.0
2,6, 1, 6, 0,14, 0.00,60.00,Friday         
18,47319867.8454898
520,47319867.8454898
757,0.0
2,6, 1, 6, 0,15, 0.00,60.00,Friday         
18,52316088.6589514
520,52316088.6589514
757,0.0
2,6, 1, 6, 0,16, 0.00,60.00,Friday         
18,56400124.1672141
520,56400124.1672141
757,0.0
2,6, 1, 6, 0,17, 0.00,60.00,Friday         
18,57964263.4721799
520,57964263.4721799
757,0.0
2,6, 1, 6, 0,18, 0.00,60.00,Friday         
18,38688868.6454929
520,38688868.6454929
757,0.0
2,6, 1, 6, 0,19, 0.00,60.00,Friday         
18,24424768.3821073
520,24424768.3821073
757,0.0
2,6, 1, 6, 0,20, 0.00,60.00,Friday         
18,21444214.6696268
520,21444214.6696268
757,0.0
2,6, 1, 6, 0,21, 0.00,60.00,Friday         
18,16482204.2496351
520,16482204.2496351
757,0.0
2,6, 1, 6, 0,22, 0.00,60.00,Friday         
18,15790443.279705
520,15790443.279705
757,0.0
2,6, 1, 6, 0,23, 0.00,60.00,Friday         
18,12395520.324
520,12395520.324
757,0.0
2,6, 1, 6, 0,24, 0.00,60.00,Friday         
18,10846080.306
520,10846080.306
757,0.0
2,7, 1, 7, 0, 1, 0.00,60.00,Saturday       
18,8521920.234
520,8521920.234
757,0.0
2,7, 1, 7, 0, 2, 0.00,60.00,Saturday       
18,8521920.234
520,8521920.234
757,0.0
2,7, 1, 7, 0, 3, 0.00,60.00,Saturday       
18,8521920.234
520,8521920.234
757,0.0
2,7, 1, 7, 0, 4, 0.00,60.00,Saturday       
18,8521920.234
520,8521920.234
757,0.0
2,7, 1, 7, 0, 5, 0.00,60.00,Saturday       
18,8521920.234
520,8521920.234
757,0.0
2,7, 1, 7, 0, 6, 0.00,60.00,Saturday       
18,8521920.234
520,8521920.234
757,0.0
2,7, 1, 7, 0, 7, 0.00,60.00,Saturday       
18,12973473.4777878
520,12973473.4777878
757,1010475.46243466
2,7, 1, 7, 0, 8, 0.00,60.00,Saturday       
18,12312922.9820107
520,12312922.9820107
757,636833.969340921
2,7, 1, 7, 0, 9, 0.00,60.00,Saturday       
18,17465736.4044679
520,17465736.4044679
757,0.0
2,7, 1, 7, 0,10, 0.00,60.00,Saturday       
18,18188916.5434781
520,18188916.5434781
757,0.0
2,7, 1, 7, 0,11, 0.00,60.00,Saturday       
18,17381357.2795757
520,17381357.2795757
757,0.0
2,7, 1, 7, 0,12, 0.00,60.00,Saturday       
18,17979532.2788882
520,17979532.2788882
757,0.0
2,7, 1, 7, 0,13, 0.00,60.00,Saturday       
18,13187787.3554007
520,13187787.3554007
757,0.0
2,7, 1, 7, 0,14, 0.00,60.00,Saturday       
18,16077176.9389851
520,16077176.9389851
757,0.0
2,7, 1, 7, 0,15, 0.00,60.00,Saturday       
18,18949077.7175084
520,18949077.7175084
757,0.0
2,7, 1, 7, 0,16, 0.00,60.00,Saturday       
18,21693396.5405538
520,21693396.5405538
757,0.0
2,7, 1, 7, 0,17, 0.00,60.00,Saturday       
18,19880832.0844796
520,19880832.0844796
757,0.0
2,7, 1, 7, 0,18, 0.00,60.00,Saturday       
18,17288228.2100789
520,17288228.2100789
757,0.0
2,7, 1, 7, 0,19, 0.00,60.00,Saturday       
18,8521920.234
520,8521920.234
757,0.0
2,7, 1, 7, 0,20, 0.00,60.00,Saturday       
18,8521920.234
520,8521920.234
757,0.0
2,7, 1, 7, 0,21, 0.00,60.00,Saturday       
18,8521920.234
520,8521920.234
757,0.0
2,7, 1, 7, 0,22, 0.00,60.00,Saturday       
18,8521920.234
520,8521920.234
757,0.0
2,7, 1, 7, 0,23, 0.00,60.00,Saturday       
18,8521920.234
520,8521920.234
757,0.0
2,7, 1, 7, 0,24, 0.00,60.00,Saturday       
18,8521920.234
520,8521920.234
757,0.0
2,8, 1, 8, 0, 1, 0.00,60.00,Sunday         
18,8521920.234
520,8521920.234
757,0.0
2,8, 1, 8, 0, 2, 0.00,60.00,Sunday         
18,8521920.234
520,8521920.234
757,0.0
2,8, 1, 8, 0, 3, 0.00,60.00,Sunday         
18,8521920.234
520,8521920.234
757,0.0
2,8, 1, 8, 0, 4, 0.00,60.00,Sunday         
18,8521920.234
520,8521920.234
757,0.0
2,8, 1, 8, 0, 5, 0.00,60.00,Sunday         
18,8521920.234
520,8521920.234
757,0.0
2,8, 1, 8, 0, 6, 0.00,60.00,Sunday         
18,8521920.234
520,8521920.234
757,0.0
2,8, 1, 8, 0, 7, 0.00,60.00,Sunday         
18,8521920.234
520,8521920.234
757,0.0
2,8, 1, 8, 0, 8, 0.00,60.00,Sunday         
18,8329709.5665
520,8329709.5665
757,0.0
2,8, 1, 8, 0, 9, 0.00,60.00,Sunday         
18,7935175.764
520,7935175.764
757,0.0
2,8, 1, 8, 0,10, 0.00,60.00,Sunday         
18,7935175.764
520,7935175.764
757,0.0
2,8, 1, 8, 0,11, 0.00,60.00,Sunday         
18,7935175.764
520,7935175.764
757,0.0
2,8, 1, 8, 0,12, 0.00,60.00,Sunday         
18,7830643.374
520,7830643.374
757,0.0
2,8, 1, 8, 0,13, 0.00,60.00,Sunday         
18,7856776.4715
520,7856776.4715
757,0.0
2,8, 1, 8, 0,14, 0.00,60.00,Sunday         
18,7856776.4715
520,7856776.4715
757,0.0
2,8, 1, 8, 0,15, 0.00,60.00,Sunday         
18,7935175.764
520,7935175.764
757,0.0
2,8, 1, 8, 0,16, 0.00,60.00,Sunday         
18,7935175.764
520,7935175.764
757,0.0
2,8, 1, 8, 0,17, 0.00,60.00,Sunday         
18,7957938.039
520,7957938.039
757,0.0
2,8, 1, 8, 0,18, 0.00,60.00,Sunday         
18,8386615.254
520,8386615.254
757,0.0
2,8, 1, 8, 0,19, 0.00,60.00,Sunday         
18,8521920.234
520,8521920.234
757,0.0
2,8, 1, 8, 0,20, 0.00,60.00,Sunday         
18,8521920.234
520,8521920.234
757,0.0
2,8, 1, 8, 0,21, 0.00,60.00,Sunday         
18,8521920.234
520,8521920.234
757,0.0
2,8, 1, 8, 0,22, 0.00,60.00,Sunday         
18,8521920.234
520,8521920.234
757,0.0
2,8, 1, 8, 0,23, 0.00,60.00,Sunday         
18,8521920.234
520,8521920.234
757,0.0
2,8, 1, 8, 0,24, 0.00,60.00,Sunday         
18,8521920.234
520,8521920.234
757,0.0
2,9, 1, 9, 0, 1, 0.00,60.00,Monday         
18,10846080.306
520,10846080.306
757,0.0
2,9, 1, 9, 0, 2, 0.00,60.00,Monday         
18,10846080.306
520,10846080.306
757,0.0
2,9, 1, 9, 0, 3, 0.00,60.00,Monday         
18,10846080.306
520,10846080.306
757,0.0
2,9, 1, 9, 0, 4, 0.00,60.00,Monday         
18,10846080.306
520,10846080.306
757,0.0
2,9, 1, 9, 0, 5, 0.00,60.00,Monday         
18,10846080.306
520,10846080.306
757,0.0
2,9, 1, 9, 0, 6, 0.00,60.00,Monday         
18,12622534.2773779
520,12622534.2773779
757,372687.289395939
2,9, 1, 9, 0, 7, 0.00,60.00,Monday         
18,12503795.2683888
520,12503795.2683888
757,173997.885539935
2,9, 1, 9, 0, 8, 0.00,60.00,Monday         
18,17214930.981
520,17214930.981
757,0.0
2,9, 1, 9, 0, 9, 0.00,60.00,Monday         
18,38352733.0887854
520,38352733.0887854
757,0.0
2,9, 1, 9, 0,10, 0.00,60.00,Monday         
18,39439225.3448201
520,39439225.3448201
757,0.0
2,9, 1, 9, 0,11, 0.00,60.00,Monday         
18,40572546.4066786
520,40572546.4066786
757,0.0
2,9, 1, 9, 0,12, 0.00,60.00,Monday         
18,43989868.8021312
520,43989868.8021312
757,0.0
2,9, 1, 9, 0,13, 0.00,60.00,Monday         
18,43626218.8208736
520,43626218.8208736
757,0.0
2,9, 1, 9, 0,14, 0.00,60.00,Monday         
18,50912066.2951487
520,50912066.2951487
757,0.0
2,9, 1, 9, 0,15, 0.00,60.00,Monday         
18,55643140.0351939
520,55643140.0351939
757,0.0
2,9, 1, 9, 0,16, 0.00,60.00,Monday         
18,60254607.8464518
520,60254607.8464518
757,0.0
2,9, 1, 9, 0,17, 0.00,60.00,Monday         
18,63370151.0709751
520,63370151.0709751
757,0.0
2,9, 1, 9, 0,18, 0.00,60.00,Monday         
18,38055203.0981362
520,38055203.0981362
757,0.0
2,9, 1, 9, 0,19, 0.00,60.00,Monday         
18,24697262.1163191
520,24697262.1163191
757,0.0
2,9, 1, 9, 0,20, 0.00,60.00,Monday         
18,22476160.3059571
520,22476160.3059571
757,0.0
2,9, 1, 9, 0,21, 0.00,60.00,Monday         
18,17679495.7683583
520,17679495.7683583
757,0.0
2,9, 1, 9, 0,22, 0.00,60.00,Monday         
18,16535520.7985411
520,16535520.7985411
757,0.0
2,9, 1, 9, 0,23, 0.00,60.00,Monday         
18,12395520.324
520,12395520.324
757,0.0
2,9, 1, 9, 0,24, 0.00,60.00,Monday         
18,10846080.306
520,10846080.306
757,0.0
2,10, 1,10, 0, 1, 0.00,60.00,Tuesday        
18,10846080.306
520,10846080.306
757,0.0
2,10, 1,10, 0, 2, 0.00,60.00,Tuesday        
18,10846080.306
520,10846080.306
757,0.0
2,10, 1,10, 0, 3, 0.00,60.00,Tuesday        
18,10846080.306
520,10846080.306
757,0.0
2,10, 1,10, 0, 4, 0.00,60.00,Tuesday        
18,10846080.306
520,10846080.306
757,0.0
2,10, 1,10, 0, 5, 0.00,60.00,Tuesday        
18,10846080.306
520,10846080.306
757,0.0
2,10, 1,10, 0, 6, 0.00,60.00,Tuesday        
18,12395520.324
520,12395520.324
757,0.0
2,10, 1,10, 0, 7, 0.00,60.00,Tuesday        
18,12395520.324
520,12395520.324
757,0.0
2,10, 1,10, 0, 8, 0.00,60.00,Tuesday        
18,17214930.981
520,17214930.981
757,0.0
2,10, 1,10, 0, 9, 0.00,60.00,Tuesday        
18,38774355.7284563
520,38774355.7284563
757,0.0
2,10, 1,10, 0,10, 0.00,60.00,Tuesday        
18,40587058.2442409
520,40587058.2442409
757,0.0
2,10, 1,10, 0,11, 0.00,60.00,Tuesday        
18,43286510.2102085
520,43286510.2102085
757,0.0
2,10, 1,10, 0,12, 0.00,60.00,Tuesday        
18,47209490.0434479
520,47209490.0434479
757,0.0
2,10, 1,10, 0,13, 0.00,60.00,Tuesday        
18,46420354.3631926
520,46420354.3631926
757,0.0
2,10, 1,10, 0,14, 0.00,60.00,Tuesday        
18,52938782.6244538
520,52938782.6244538
757,0.0
2,10, 1,10, 0,15, 0.00,60.00,Tuesday        
18,56587943.4162175
520,56587943.4162175
757,0.0
2,10, 1,10, 0,16, 0.00,60.00,Tuesday        
18,61195006.9476718
520,61195006.9476718
757,0.0
2,10, 1,10, 0,17, 0.00,60.00,Tuesday        
18,66071156.017863
520,66071156.017863
757,0.0
2,10, 1,10, 0,18, 0.00,60.00,Tuesday        
18,44828097.1395834
520,44828097.1395834
757,0.0
2,10, 1,10, 0,19, 0.00,60.00,Tuesday        
18,27229803.0864014
520,27229803.0864014
757,0.0
2,10, 1,10, 0,20, 0.00,60.00,Tuesday        
18,23826651.858741
520,23826651.858741
757,0.0
2,10, 1,10, 0,21, 0.00,60.00,Tuesday        
18,18571572.391863
520,18571572.391863
757,0.0
2,10, 1,10, 0,22, 0.00,60.00,Tuesday        
18,17218868.9869174
520,17218868.9869174
757,0.0
2,10, 1,10, 0,23, 0.00,60.00,Tuesday        
18,12395520.324
520,12395520.324
757,0.0
2,10, 1,10, 0,24, 0.00,60.00,Tuesday        
18,10846080.306
520,10846080.306
757,0.0
2,11, 1,11, 0, 1, 0.00,60.00,Wednesday      
18,10846080.306
520,10846080.306
757,0.0
2,11, 1,11, 0, 2, 0.00,60.00,Wednesday      
18,10846080.306
520,10846080.306
757,0.0
2,11, 1,11, 0, 3, 0.00,60.00,Wednesday      
18,10846080.306
520,10846080.306
757,0.0
2,11, 1,11, 0, 4, 0.00,60.00,Wednesday      
18,10846080.306
520,10846080.306
757,0.0
2,11, 1,11, 0, 5, 0.00,60.00,Wednesday      
18,10846080.306
520,10846080.306
757,0.0
2,11, 1,11, 0, 6, 0.00,60.00,Wednesday      
18,12395520.324
520,12395520.324
757,0.0
2,11, 1,11, 0, 7, 0.00,60.00,Wednesday      
18,12395520.324
520,12395520.324
757,0.0
2,11, 1,11, 0, 8, 0.00,60.00,Wednesday      
18,17440016.391
520,17440016.391
757,0.0
2,11, 1,11, 0, 9, 0.00,60.00,Wednesday      
18,38245960.512
520,38245960.512
757,0.0
2,11, 1,11, 0,10, 0.00,60.00,Wednesday      
18,39443191.7667028
520,39443191.7667028
757,0.0
2,11, 1,11, 0,11, 0.00,60.00,Wednesday      
18,43114203.4363861
520,43114203.4363861
757,0.0
2,11, 1,11, 0,12, 0.00,60.00,Wednesday      
18,46843986.1708196
520,46843986.1708196
757,0.0
2,11, 1,11, 0,13, 0.00,60.00,Wednesday      
18,45812986.1132033
520,45812986.1132033
757,0.0
2,11, 1,11, 0,14, 0.00,60.00,Wednesday      
18,51908627.7274699
520,51908627.7274699
757,0.0
2,11, 1,11, 0,15, 0.00,60.00,Wednesday      
18,56037873.1800025
520,56037873.1800025
757,0.0
2,11, 1,11, 0,16, 0.00,60.00,Wednesday      
18,61255842.6651411
520,61255842.6651411
757,0.0
2,11, 1,11, 0,17, 0.00,60.00,Wednesday      
18,68561962.1616006
520,68561962.1616006
757,0.0
2,11, 1,11, 0,18, 0.00,60.00,Wednesday      
18,42320473.5953078
520,42320473.5953078
757,0.0
2,11, 1,11, 0,19, 0.00,60.00,Wednesday      
18,25915429.4108407
520,25915429.4108407
757,0.0
2,11, 1,11, 0,20, 0.00,60.00,Wednesday      
18,22932347.2308746
520,22932347.2308746
757,0.0
2,11, 1,11, 0,21, 0.00,60.00,Wednesday      
18,17670231.6474549
520,17670231.6474549
757,0.0
2,11, 1,11, 0,22, 0.00,60.00,Wednesday      
18,16286194.8086676
520,16286194.8086676
757,0.0
2,11, 1,11, 0,23, 0.00,60.00,Wednesday      
18,12395520.324
520,12395520.324
757,0.0
2,11, 1,11, 0,24, 0.00,60.00,Wednesday      
18,10846080.306
520,10846080.306
757,0.0
2,12, 1,12, 0, 1, 0.00,60.00,Thursday       
18,10846080.306
520,10846080.306
757,0.0
2,12, 1,12, 0, 2, 0.00,60.00,Thursday       
18,10846080.306
520,10846080.306
757,0.0
2,12, 1,12, 0, 3, 0.00,60.00,Thursday       
18,10846080.306
520,10846080.306
757,0.0
2,12, 1,12, 0, 4, 0.00,60.00,Thursday       
18,10846080.306
520,10846080.306
757,0.0
2,12, 1,12, 0, 5, 0.00,60.00,Thursday       
18,10846080.306
520,10846080.306
757,0.0
2,12, 1,12, 0, 6, 0.00,60.00,Thursday       
18,12395520.324
520,12395520.324
757,0.0
2,12, 1,12, 0, 7, 0.00,60.00,Thursday       
18,12395520.324
520,12395520.324
757,0.0
2,12, 1,12, 0, 8, 0.00,60.00,Thursday       
18,17576590.041
520,17576590.041
757,0.0
2,12, 1,12, 0, 9, 0.00,60.00,Thursday       
18,38245960.512
520,38245960.512
757,0.0
2,12, 1,12, 0,10, 0.00,60.00,Thursday       
18,38882773.2519911
520,38882773.2519911
757,0.0
2,12, 1,12, 0,11, 0.00,60.00,Thursday       
18,42558789.9255793
520,42558789.9255793
757,0.0
2,12, 1,12, 0,12, 0.00,60.00,Thursday       
18,46442473.4954902
520,46442473.4954902
757,0.0
2,12, 1,12, 0,13, 0.00,60.00,Thursday       
18,45544064.1298296
520,45544064.1298296
757,0.0
2,12, 1,12, 0,14, 0.00,60.00,Thursday       
18,52202864.4937828
520,52202864.4937828
757,0.0
2,12, 1,12, 0,15, 0.00,60.00,Thursday       
18,55825620.5213075
520,55825620.5213075
757,0.0
2,12, 1,12, 0,16, 0.00,60.00,Thursday       
18,59570095.849122
520,59570095.849122
757,0.0
2,12, 1,12, 0,17, 0.00,60.00,Thursday       
18,60007960.6910354
520,60007960.6910354
757,0.0
2,12, 1,12, 0,18, 0.00,60.00,Thursday       
18,39400705.5000176
520,39400705.5000176
757,0.0
2,12, 1,12, 0,19, 0.00,60.00,Thursday       
18,25387461.0092269
520,25387461.0092269
757,0.0
2,12, 1,12, 0,20, 0.00,60.00,Thursday       
18,22593017.0430054
520,22593017.0430054
757,0.0
2,12, 1,12, 0,21, 0.00,60.00,Thursday       
18,17678985.7993788
520,17678985.7993788
757,0.0
2,12, 1,12, 0,22, 0.00,60.00,Thursday       
18,16453817.4969326
520,16453817.4969326
757,0.0
2,12, 1,12, 0,23, 0.00,60.00,Thursday       
18,12395520.324
520,12395520.324
757,0.0