Program Version,EnergyPlus-Linux-64 8.1.0.009, YMD=2014.08.26 07:25
1,5,Environment Title[],Latitude[deg],Longitude[deg],Time Zone[],Elevation[m]
2,6,Day of Simulation[],Month[],Day of Month[],DST Indicator[1=yes 0=no],Hour[],StartMinute[],EndMinute[],DayType
3,3,Cumulative Day of Simulation[],Month[],Day of Month[],DST Indicator[1=yes 0=no],DayType  ! When Daily Meters Requested
4,2,Cumulative Days of Simulation[],Month[]  ! When Monthly Meters Requested
5,1,Cumulative Days of Simulation[] ! When Run Period Meters Requested
21,11,Electricity:Facility [J] !RunPeriod [Value,Min,Month,Day,Hour,Minute,Max,Month,Day,Hour,Minute]
461,11,ElectricityPurchased:Facility [J] !RunPeriod [Value,Min,Month,Day,Hour,Minute,Max,Month,Day,Hour,Minute]
492,11,ElectricitySurplusSold:Facility [J] !RunPeriod [Value,Min,Month,Day,Hour,Minute,Max,Month,Day,Hour,Minute]
523,11,ElectricityNet:Facility [J] !RunPeriod [Value,Min,Month,Day,Hour,Minute,Max,Month,Day,Hour,Minute]
833,11,Source:Facility [J] !RunPeriod [Value,Min,Month,Day,Hour,Minute,Max,Month,Day,Hour,Minute]
854,11,CO2:Facility [kg] !RunPeriod [Value,Min,Month,Day,Hour,Minute,Max,Month,Day,Hour,Minute]
31,11,Electricity:Building [J] !RunPeriod [Value,Min,Month,Day,Hour,Minute,Max,Month,Day,Hour,Minute]
724,11,Electricity:Plant [J] !RunPeriod [Value,Min,Month,Day,Hour,Minute,Max,Month,Day,Hour,Minute]
599,11,Electricity:HVAC [J] !RunPeriod [Value,Min,Month,Day,Hour,Minute,Max,Month,Day,Hour,Minute]
51,11,InteriorLights:Electricity [J] !RunPeriod [Value,Min,Month,Day,Hour,Minute,Max,Month,Day,Hour,Minute]
166,11,InteriorEquipment:Electricity [J] !RunPeriod [Value,Min,Month,Day,Hour,Minute,Max,Month,Day,Hour,Minute]
609,11,Fans:Electricity [J] !RunPeriod [Value,Min,Month,Day,Hour,Minute,Max,Month,Day,Hour,Minute]
705,11,Cooling:Electricity [J] !RunPeriod [Value,Min,Month,Day,Hour,Minute,Max,Month,Day,Hour,Minute]
822,11,Pumps:Electricity [J] !RunPeriod [Value,Min,Month,Day,Hour,Minute,Max,Month,Day,Hour,Minute]
801,11,Heating:Electricity [J] !RunPeriod [Value,Min,Month,Day,Hour,Minute,Max,Month,Day,Hour,Minute]
760,11,Gas:Facility [J] !RunPeriod [Value,Min,Month,Day,Hour,Minute,Max,Month,Day,Hour,Minute]
780,11,Heating:Gas [J] !RunPeriod [Value,Min,Month,Day,Hour,Minute,Max,Month,Day,Hour,Minute]
770,11,Gas:Plant [J] !RunPeriod [Value,Min,Month,Day,Hour,Minute,Max,Month,Day,Hour,Minute]
18,1,Electricity:Facility [J] !Hourly
520,1,ElectricityNet:Facility [J] !Hourly
757,1,Gas:Facility [J] !Hourly
20,9,Electricity:Facility [J] !Monthly  [Value,Min,Day,Hour,Minute,Max,Day,Hour,Minute]
759,9,Gas:Facility [J] !Monthly  [Value,Min,Day,Hour,Minute,Max,Day,Hour,Minute]
853,9,CO2:Facility [kg] !Monthly  [Value,Min,Day,Hour,Minute,Max,Day,Hour,Minute]
874,9,CO:Facility [kg] !Monthly  [Value,Min,Day,Hour,Minute,Max,Day,Hour,Minute]
895,9,CH4:Facility [kg] !Monthly  [Value,Min,Day,Hour,Minute,Max,Day,Hour,Minute]
916,9,NOx:Facility [kg] !Monthly  [Value,Min,Day,Hour,Minute,Max,Day,Hour,Minute]
937,9,N2O:Facility [kg] !Monthly  [Value,Min,Day,Hour,Minute,Max,Day,Hour,Minute]
958,9,SO2:Facility [kg] !Monthly  [Value,Min,Day,Hour,Minute,Max,Day,Hour,Minute]
979,9,PM:Facility [kg] !Monthly  [Value,Min,Day,Hour,Minute,Max,Day,Hour,Minute]
1000,9,PM10:Facility [kg] !Monthly  [Value,Min,Day,Hour,Minute,Max,Day,Hour,Minute]
1021,9,PM2.5:Facility [kg] !Monthly  [Value,Min,Day,Hour,Minute,Max,Day,Hour,Minute]
1042,9,NH3:Facility [kg] !Monthly  [Value,Min,Day,Hour,Minute,Max,Day,Hour,Minute]
1063,9,NMVOC:Facility [kg] !Monthly  [Value,Min,Day,Hour,Minute,Max,Day,Hour,Minute]
1084,9,Hg:Facility [kg] !Monthly  [Value,Min,Day,Hour,Minute,Max,Day,Hour,Minute]
1105,9,Pb:Facility [kg] !Monthly  [Value,Min,Day,Hour,Minute,Max,Day,Hour,Minute]
1126,9,WaterEnvironmentalFactors:Facility [L] !Monthly  [Value,Min,Day,Hour,Minute,Max,Day,Hour,Minute]
1147,9,Nuclear High:Facility [kg] !Monthly  [Value,Min,Day,Hour,Minute,Max,Day,Hour,Minute]
1168,9,Nuclear Low:Facility [m3] !Monthly  [Value,Min,Day,Hour,Minute,Max,Day,Hour,Minute]
1772,9,Carbon Equivalent:Facility [kg] !Monthly  [Value,Min,Day,Hour,Minute,Max,Day,Hour,Minute]
End of Data Dictionary
1,Hyderabad Andhra Pradesh IND ISHRAE WMO#=431280,  17.45,  78.47,   5.50, 545.00
2,1, 1, 1, 0, 1, 0.00,60.00,Holiday        
18,8521920.234
520,8521920.234
757,0.0
2,1, 1, 1, 0, 2, 0.00,60.00,Holiday        
18,8521920.234
520,8521920.234
757,0.0
2,1, 1, 1, 0, 3, 0.00,60.00,Holiday        
18,8521920.234
520,8521920.234
757,0.0
2,1, 1, 1, 0, 4, 0.00,60.00,Holiday        
18,8521920.234
520,8521920.234
757,0.0
2,1, 1, 1, 0, 5, 0.00,60.00,Holiday        
18,8521920.234
520,8521920.234
757,0.0
2,1, 1, 1, 0, 6, 0.00,60.00,Holiday        
18,8521920.234
520,8521920.234
757,0.0
2,1, 1, 1, 0, 7, 0.00,60.00,Holiday        
18,8521920.234
520,8521920.234
757,0.0
2,1, 1, 1, 0, 8, 0.00,60.00,Holiday        
18,8521920.234
520,8521920.234
757,0.0
2,1, 1, 1, 0, 9, 0.00,60.00,Holiday        
18,8521920.234
520,8521920.234
757,0.0
2,1, 1, 1, 0,10, 0.00,60.00,Holiday        
18,8521920.234
520,8521920.234
757,0.0
2,1, 1, 1, 0,11, 0.00,60.00,Holiday        
18,8521920.234
520,8521920.234
757,0.0
2,1, 1, 1, 0,12, 0.00,60.00,Holiday        
18,8521920.234
520,8521920.234
757,0.0
2,1, 1, 1, 0,13, 0.00,60.00,Holiday        
18,8521920.234
520,8521920.234
757,0.0
2,1, 1, 1, 0,14, 0.00,60.00,Holiday        
18,8521920.234
520,8521920.234
757,0.0
2,1, 1, 1, 0,15, 0.00,60.00,Holiday        
18,8521920.234
520,8521920.234
757,0.0
2,1, 1, 1, 0,16, 0.00,60.00,Holiday        
18,8521920.234
520,8521920.234
757,0.0
2,1, 1, 1, 0,17, 0.00,60.00,Holiday        
18,8521920.234
520,8521920.234
757,0.0
2,1, 1, 1, 0,18, 0.00,60.00,Holiday        
18,8521920.234
520,8521920.234
757,0.0
2,1, 1, 1, 0,19, 0.00,60.00,Holiday        
18,8521920.234
520,8521920.234
757,0.0
2,1, 1, 1, 0,20, 0.00,60.00,Holiday        
18,8521920.234
520,8521920.234
757,0.0
2,1, 1, 1, 0,21, 0.00,60.00,Holiday        
18,8521920.234
520,8521920.234
757,0.0
2,1, 1, 1, 0,22, 0.00,60.00,Holiday        
18,8521920.234
520,8521920.234
757,0.0
2,1, 1, 1, 0,23, 0.00,60.00,Holiday        
18,8521920.234
520,8521920.234
757,0.0
2,1, 1, 1, 0,24, 0.00,60.00,Holiday        
18,8521920.234
520,8521920.234
757,0.0
2,2, 1, 2, 0, 1, 0.00,60.00,Monday         
18,10846080.306
520,10846080.306
757,0.0
2,2, 1, 2, 0, 2, 0.00,60.00,Monday         
18,10846080.306
520,10846080.306
757,0.0
2,2, 1, 2, 0, 3, 0.00,60.00,Monday         
18,10846080.306
520,10846080.306
757,0.0
2,2, 1, 2, 0, 4, 0.00,60.00,Monday         
18,10846080.306
520,10846080.306
757,0.0
2,2, 1, 2, 0, 5, 0.00,60.00,Monday         
18,10846080.306
520,10846080.306
757,0.0
2,2, 1, 2, 0, 6, 0.00,60.00,Monday         
18,12466550.8364986
520,12466550.8364986
757,5244.75019494344
2,2, 1, 2, 0, 7, 0.00,60.00,Monday         
18,12395520.324
520,12395520.324
757,0.0
2,2, 1, 2, 0, 8, 0.00,60.00,Monday         
18,18593280.396
520,18593280.396
757,0.0
2,2, 1, 2, 0, 9, 0.00,60.00,Monday         
18,48807360.972
520,48807360.972
757,0.0
2,2, 1, 2, 0,10, 0.00,60.00,Monday         
18,48807360.972
520,48807360.972
757,0.0
2,2, 1, 2, 0,11, 0.00,60.00,Monday         
18,48807360.972
520,48807360.972
757,0.0
2,2, 1, 2, 0,12, 0.00,60.00,Monday         
18,49320483.0612577
520,49320483.0612577
757,0.0
2,2, 1, 2, 0,13, 0.00,60.00,Monday         
18,47947383.9049235
520,47947383.9049235
757,0.0
2,2, 1, 2, 0,14, 0.00,60.00,Monday         
18,54411436.6602573
520,54411436.6602573
757,0.0
2,2, 1, 2, 0,15, 0.00,60.00,Monday         
18,57260950.1352977
520,57260950.1352977
757,0.0
2,2, 1, 2, 0,16, 0.00,60.00,Monday         
18,59446663.6134331
520,59446663.6134331
757,0.0
2,2, 1, 2, 0,17, 0.00,60.00,Monday         
18,61138837.9625612
520,61138837.9625612
757,0.0
2,2, 1, 2, 0,18, 0.00,60.00,Monday         
18,34462997.089462
520,34462997.089462
757,0.0
2,2, 1, 2, 0,19, 0.00,60.00,Monday         
18,23437255.4385595
520,23437255.4385595
757,0.0
2,2, 1, 2, 0,20, 0.00,60.00,Monday         
18,22502678.7034652
520,22502678.7034652
757,0.0
2,2, 1, 2, 0,21, 0.00,60.00,Monday         
18,18047411.1964094
520,18047411.1964094
757,0.0
2,2, 1, 2, 0,22, 0.00,60.00,Monday         
18,17083371.3764352
520,17083371.3764352
757,0.0
2,2, 1, 2, 0,23, 0.00,60.00,Monday         
18,12395520.324
520,12395520.324
757,0.0
2,2, 1, 2, 0,24, 0.00,60.00,Monday         
18,10846080.306
520,10846080.306
757,0.0
2,3, 1, 3, 0, 1, 0.00,60.00,Tuesday        
18,10846080.306
520,10846080.306
757,0.0
2,3, 1, 3, 0, 2, 0.00,60.00,Tuesday        
18,10846080.306
520,10846080.306
757,0.0
2,3, 1, 3, 0, 3, 0.00,60.00,Tuesday        
18,10846080.306
520,10846080.306
757,0.0
2,3, 1, 3, 0, 4, 0.00,60.00,Tuesday        
18,10846080.306
520,10846080.306
757,0.0
2,3, 1, 3, 0, 5, 0.00,60.00,Tuesday        
18,10846080.306
520,10846080.306
757,0.0
2,3, 1, 3, 0, 6, 0.00,60.00,Tuesday        
18,12395520.324
520,12395520.324
757,0.0
2,3, 1, 3, 0, 7, 0.00,60.00,Tuesday        
18,12395520.324
520,12395520.324
757,0.0
2,3, 1, 3, 0, 8, 0.00,60.00,Tuesday        
18,18593280.396
520,18593280.396
757,0.0
2,3, 1, 3, 0, 9, 0.00,60.00,Tuesday        
18,48807360.972
520,48807360.972
757,0.0
2,3, 1, 3, 0,10, 0.00,60.00,Tuesday        
18,48807360.972
520,48807360.972
757,0.0
2,3, 1, 3, 0,11, 0.00,60.00,Tuesday        
18,49585582.6130282
520,49585582.6130282
757,0.0
2,3, 1, 3, 0,12, 0.00,60.00,Tuesday        
18,51955350.9720207
520,51955350.9720206
757,0.0
2,3, 1, 3, 0,13, 0.00,60.00,Tuesday        
18,50522975.0350798
520,50522975.0350798
757,0.0
2,3, 1, 3, 0,14, 0.00,60.00,Tuesday        
18,56999007.8863141
520,56999007.8863141
757,0.0
2,3, 1, 3, 0,15, 0.00,60.00,Tuesday        
18,59022193.6148594
520,59022193.6148594
757,0.0
2,3, 1, 3, 0,16, 0.00,60.00,Tuesday        
18,60816678.3032967
520,60816678.3032967
757,0.0
2,3, 1, 3, 0,17, 0.00,60.00,Tuesday        
18,62289068.2332191
520,62289068.2332191
757,0.0
2,3, 1, 3, 0,18, 0.00,60.00,Tuesday        
18,35412007.4140868
520,35412007.4140868
757,0.0
2,3, 1, 3, 0,19, 0.00,60.00,Tuesday        
18,24107383.7684286
520,24107383.7684286
757,0.0
2,3, 1, 3, 0,20, 0.00,60.00,Tuesday        
18,23045180.4740889
520,23045180.4740889
757,0.0
2,3, 1, 3, 0,21, 0.00,60.00,Tuesday        
18,18532005.2296787
520,18532005.2296787
757,0.0
2,3, 1, 3, 0,22, 0.00,60.00,Tuesday        
18,17536208.3530409
520,17536208.3530409
757,0.0
2,3, 1, 3, 0,23, 0.00,60.00,Tuesday        
18,12395520.324
520,12395520.324
757,0.0
2,3, 1, 3, 0,24, 0.00,60.00,Tuesday        
18,10846080.306
520,10846080.306
757,0.0
2,4, 1, 4, 0, 1, 0.00,60.00,Wednesday      
18,10846080.306
520,10846080.306
757,0.0
2,4, 1, 4, 0, 2, 0.00,60.00,Wednesday      
18,10846080.306
520,10846080.306
757,0.0
2,4, 1, 4, 0, 3, 0.00,60.00,Wednesday      
18,10846080.306
520,10846080.306
757,0.0
2,4, 1, 4, 0, 4, 0.00,60.00,Wednesday      
18,10846080.306
520,10846080.306
757,0.0
2,4, 1, 4, 0, 5, 0.00,60.00,Wednesday      
18,10846080.306
520,10846080.306
757,0.0
2,4, 1, 4, 0, 6, 0.00,60.00,Wednesday      
18,12395520.324
520,12395520.324
757,0.0
2,4, 1, 4, 0, 7, 0.00,60.00,Wednesday      
18,12395520.324
520,12395520.324
757,0.0
2,4, 1, 4, 0, 8, 0.00,60.00,Wednesday      
18,18593280.396
520,18593280.396
757,0.0
2,4, 1, 4, 0, 9, 0.00,60.00,Wednesday      
18,48807360.972
520,48807360.972
757,0.0
2,4, 1, 4, 0,10, 0.00,60.00,Wednesday      
18,48836961.3742905
520,48836961.3742905
757,0.0
2,4, 1, 4, 0,11, 0.00,60.00,Wednesday      
18,50254436.1442631
520,50254436.1442631
757,0.0
2,4, 1, 4, 0,12, 0.00,60.00,Wednesday      
18,52956691.9048468
520,52956691.9048468
757,0.0
2,4, 1, 4, 0,13, 0.00,60.00,Wednesday      
18,51051516.523794
520,51051516.523794
757,0.0
2,4, 1, 4, 0,14, 0.00,60.00,Wednesday      
18,57483067.8780835
520,57483067.8780835
757,0.0
2,4, 1, 4, 0,15, 0.00,60.00,Wednesday      
18,59333605.4720329
520,59333605.4720329
757,0.0
2,4, 1, 4, 0,16, 0.00,60.00,Wednesday      
18,60979796.258263
520,60979796.258263
757,0.0
2,4, 1, 4, 0,17, 0.00,60.00,Wednesday      
18,62226186.1097682
520,62226186.1097682
757,0.0
2,4, 1, 4, 0,18, 0.00,60.00,Wednesday      
18,35231151.0034266
520,35231151.0034266
757,0.0
2,4, 1, 4, 0,19, 0.00,60.00,Wednesday      
18,23999520.5260384
520,23999520.5260384
757,0.0
2,4, 1, 4, 0,20, 0.00,60.00,Wednesday      
18,22976703.5786521
520,22976703.5786521
757,0.0
2,4, 1, 4, 0,21, 0.00,60.00,Wednesday      
18,18456013.4213676
520,18456013.4213676
757,0.0
2,4, 1, 4, 0,22, 0.00,60.00,Wednesday      
18,17459179.7734257
520,17459179.7734257
757,0.0
2,4, 1, 4, 0,23, 0.00,60.00,Wednesday      
18,12395520.324
520,12395520.324
757,0.0
2,4, 1, 4, 0,24, 0.00,60.00,Wednesday      
18,10846080.306
520,10846080.306
757,0.0
2,5, 1, 5, 0, 1, 0.00,60.00,Thursday       
18,10846080.306
520,10846080.306
757,0.0
2,5, 1, 5, 0, 2, 0.00,60.00,Thursday       
18,10846080.306
520,10846080.306
757,0.0
2,5, 1, 5, 0, 3, 0.00,60.00,Thursday       
18,10846080.306
520,10846080.306
757,0.0
2,5, 1, 5, 0, 4, 0.00,60.00,Thursday       
18,10846080.306
520,10846080.306
757,0.0
2,5, 1, 5, 0, 5, 0.00,60.00,Thursday       
18,10846080.306
520,10846080.306
757,0.0
2,5, 1, 5, 0, 6, 0.00,60.00,Thursday       
18,12395520.324
520,12395520.324
757,0.0
2,5, 1, 5, 0, 7, 0.00,60.00,Thursday       
18,12395520.324
520,12395520.324
757,0.0
2,5, 1, 5, 0, 8, 0.00,60.00,Thursday       
18,18593280.396
520,18593280.396
757,0.0
2,5, 1, 5, 0, 9, 0.00,60.00,Thursday       
18,48807360.972
520,48807360.972
757,0.0
2,5, 1, 5, 0,10, 0.00,60.00,Thursday       
18,49023725.8527689
520,49023725.8527689
757,0.0
2,5, 1, 5, 0,11, 0.00,60.00,Thursday       
18,51037292.2162047
520,51037292.2162047
757,0.0
2,5, 1, 5, 0,12, 0.00,60.00,Thursday       
18,54032773.5667047
520,54032773.5667047
757,0.0
2,5, 1, 5, 0,13, 0.00,60.00,Thursday       
18,52176337.6686752
520,52176337.6686752
757,0.0
2,5, 1, 5, 0,14, 0.00,60.00,Thursday       
18,58626662.6387467
520,58626662.6387467
757,0.0
2,5, 1, 5, 0,15, 0.00,60.00,Thursday       
18,60450025.4965574
520,60450025.4965573
757,0.0
2,5, 1, 5, 0,16, 0.00,60.00,Thursday       
18,61987907.893054
520,61987907.893054
757,0.0
2,5, 1, 5, 0,17, 0.00,60.00,Thursday       
18,63166453.0114305
520,63166453.0114305
757,0.0
2,5, 1, 5, 0,18, 0.00,60.00,Thursday       
18,36077255.0746978
520,36077255.0746978
757,0.0
2,5, 1, 5, 0,19, 0.00,60.00,Thursday       
18,24682992.2970885
520,24682992.2970885
757,0.0
2,5, 1, 5, 0,20, 0.00,60.00,Thursday       
18,23509236.9592141
520,23509236.9592141
757,0.0
2,5, 1, 5, 0,21, 0.00,60.00,Thursday       
18,18875838.0384158
520,18875838.0384158
757,0.0
2,5, 1, 5, 0,22, 0.00,60.00,Thursday       
18,17809732.3780846
520,17809732.3780846
757,0.0
2,5, 1, 5, 0,23, 0.00,60.00,Thursday       
18,12395520.324
520,12395520.324
757,0.0
2,5, 1, 5, 0,24, 0.00,60.00,Thursday       
18,10846080.306
520,10846080.306
757,0.0
2,6, 1, 6, 0, 1, 0.00,60.00,Friday         
18,10846080.306
520,10846080.306
757,0.0
2,6, 1, 6, 0, 2, 0.00,60.00,Friday         
18,10846080.306
520,10846080.306
757,0.0
2,6, 1, 6, 0, 3, 0.00,60.00,Friday         
18,10846080.306
520,10846080.306
757,0.0
2,6, 1, 6, 0, 4, 0.00,60.00,Friday         
18,10846080.306
520,10846080.306
757,0.0
2,6, 1, 6, 0, 5, 0.00,60.00,Friday         
18,10846080.306
520,10846080.306
757,0.0
2,6, 1, 6, 0, 6, 0.00,60.00,Friday         
18,12395520.324
520,12395520.324
757,0.0
2,6, 1, 6, 0, 7, 0.00,60.00,Friday         
18,12395520.324
520,12395520.324
757,0.0
2,6, 1, 6, 0, 8, 0.00,60.00,Friday         
18,18593280.396
520,18593280.396
757,0.0
2,6, 1, 6, 0, 9, 0.00,60.00,Friday         
18,48807360.972
520,48807360.972
757,0.0
2,6, 1, 6, 0,10, 0.00,60.00,Friday         
18,49143547.0467908
520,49143547.0467908
757,0.0
2,6, 1, 6, 0,11, 0.00,60.00,Friday         
18,51439306.2761068
520,51439306.2761068
757,0.0
2,6, 1, 6, 0,12, 0.00,60.00,Friday         
18,54282089.3716284
520,54282089.3716284
757,0.0
2,6, 1, 6, 0,13, 0.00,60.00,Friday         
18,52149071.966354
520,52149071.966354
757,0.0
2,6, 1, 6, 0,14, 0.00,60.00,Friday         
18,58478828.8129563
520,58478828.8129563
757,0.0
2,6, 1, 6, 0,15, 0.00,60.00,Friday         
18,60254326.3480092
520,60254326.3480093
757,0.0
2,6, 1, 6, 0,16, 0.00,60.00,Friday         
18,61850689.0437588
520,61850689.0437588
757,0.0
2,6, 1, 6, 0,17, 0.00,60.00,Friday         
18,63163986.6069433
520,63163986.6069433
757,0.0
2,6, 1, 6, 0,18, 0.00,60.00,Friday         
18,35984015.3618376
520,35984015.3618376
757,0.0
2,6, 1, 6, 0,19, 0.00,60.00,Friday         
18,24564254.0166748
520,24564254.0166748
757,0.0
2,6, 1, 6, 0,20, 0.00,60.00,Friday         
18,23448557.7127981
520,23448557.7127981
757,0.0
2,6, 1, 6, 0,21, 0.00,60.00,Friday         
18,18853296.0022895
520,18853296.0022895
757,0.0
2,6, 1, 6, 0,22, 0.00,60.00,Friday         
18,17811475.9894171
520,17811475.9894171
757,0.0
2,6, 1, 6, 0,23, 0.00,60.00,Friday         
18,12395520.324
520,12395520.324
757,0.0
2,6, 1, 6, 0,24, 0.00,60.00,Friday         
18,10846080.306
520,10846080.306
757,0.0
2,7, 1, 7, 0, 1, 0.00,60.00,Saturday       
18,8521920.234
520,8521920.234
757,0.0
2,7, 1, 7, 0, 2, 0.00,60.00,Saturday       
18,8521920.234
520,8521920.234
757,0.0
2,7, 1, 7, 0, 3, 0.00,60.00,Saturday       
18,8521920.234
520,8521920.234
757,0.0
2,7, 1, 7, 0, 4, 0.00,60.00,Saturday       
18,8521920.234
520,8521920.234
757,0.0
2,7, 1, 7, 0, 5, 0.00,60.00,Saturday       
18,8521920.234
520,8521920.234
757,0.0
2,7, 1, 7, 0, 6, 0.00,60.00,Saturday       
18,8521920.234
520,8521920.234
757,0.0
2,7, 1, 7, 0, 7, 0.00,60.00,Saturday       
18,12395520.324
520,12395520.324
757,0.0
2,7, 1, 7, 0, 8, 0.00,60.00,Saturday       
18,12395520.324
520,12395520.324
757,0.0
2,7, 1, 7, 0, 9, 0.00,60.00,Saturday       
18,20917440.468
520,20917440.468
757,0.0
2,7, 1, 7, 0,10, 0.00,60.00,Saturday       
18,20917440.468
520,20917440.468
757,0.0
2,7, 1, 7, 0,11, 0.00,60.00,Saturday       
18,20917440.468
520,20917440.468
757,0.0
2,7, 1, 7, 0,12, 0.00,60.00,Saturday       
18,20917440.468
520,20917440.468
757,0.0
2,7, 1, 7, 0,13, 0.00,60.00,Saturday       
18,12782880.306
520,12782880.306
757,0.0
2,7, 1, 7, 0,14, 0.00,60.00,Saturday       
18,12782880.306
520,12782880.306
757,0.0
2,7, 1, 7, 0,15, 0.00,60.00,Saturday       
18,12808949.859703
520,12808949.859703
757,0.0
2,7, 1, 7, 0,16, 0.00,60.00,Saturday       
18,13223880.9265349
520,13223880.9265349
757,0.0
2,7, 1, 7, 0,17, 0.00,60.00,Saturday       
18,13542214.8520617
520,13542214.8520617
757,0.0
2,7, 1, 7, 0,18, 0.00,60.00,Saturday       
18,9138907.14019408
520,9138907.14019408
757,0.0
2,7, 1, 7, 0,19, 0.00,60.00,Saturday       
18,8521920.234
520,8521920.234
757,0.0
2,7, 1, 7, 0,20, 0.00,60.00,Saturday       
18,8521920.234
520,8521920.234
757,0.0
2,7, 1, 7, 0,21, 0.00,60.00,Saturday       
18,8521920.234
520,8521920.234
757,0.0
2,7, 1, 7, 0,22, 0.00,60.00,Saturday       
18,8521920.234
520,8521920.234
757,0.0
2,7, 1, 7, 0,23, 0.00,60.00,Saturday       
18,8521920.234
520,8521920.234
757,0.0
2,7, 1, 7, 0,24, 0.00,60.00,Saturday       
18,8521920.234
520,8521920.234
757,0.0
2,8, 1, 8, 0, 1, 0.00,60.00,Sunday         
18,8521920.234
520,8521920.234
757,0.0
2,8, 1, 8, 0, 2, 0.00,60.00,Sunday         
18,8521920.234
520,8521920.234
757,0.0
2,8, 1, 8, 0, 3, 0.00,60.00,Sunday         
18,8521920.234
520,8521920.234
757,0.0
2,8, 1, 8, 0, 4, 0.00,60.00,Sunday         
18,8521920.234
520,8521920.234
757,0.0
2,8, 1, 8, 0, 5, 0.00,60.00,Sunday         
18,8521920.234
520,8521920.234
757,0.0
2,8, 1, 8, 0, 6, 0.00,60.00,Sunday         
18,8521920.234
520,8521920.234
757,0.0
2,8, 1, 8, 0, 7, 0.00,60.00,Sunday         
18,8521920.234
520,8521920.234
757,0.0
2,8, 1, 8, 0, 8, 0.00,60.00,Sunday         
18,8521920.234
520,8521920.234
757,0.0
2,8, 1, 8, 0, 9, 0.00,60.00,Sunday         
18,8521920.234
520,8521920.234
757,0.0
2,8, 1, 8, 0,10, 0.00,60.00,Sunday         
18,8521920.234
520,8521920.234
757,0.0
2,8, 1, 8, 0,11, 0.00,60.00,Sunday         
18,8521920.234
520,8521920.234
757,0.0
2,8, 1, 8, 0,12, 0.00,60.00,Sunday         
18,8521920.234
520,8521920.234
757,0.0
2,8, 1, 8, 0,13, 0.00,60.00,Sunday         
18,8521920.234
520,8521920.234
757,0.0
2,8, 1, 8, 0,14, 0.00,60.00,Sunday         
18,8521920.234
520,8521920.234
757,0.0
2,8, 1, 8, 0,15, 0.00,60.00,Sunday         
18,8521920.234
520,8521920.234
757,0.0
2,8, 1, 8, 0,16, 0.00,60.00,Sunday         
18,8521920.234
520,8521920.234
757,0.0
2,8, 1, 8, 0,17, 0.00,60.00,Sunday         
18,8521920.234
520,8521920.234
757,0.0
2,8, 1, 8, 0,18, 0.00,60.00,Sunday         
18,8521920.234
520,8521920.234
757,0.0
2,8, 1, 8, 0,19, 0.00,60.00,Sunday         
18,8521920.234
520,8521920.234
757,0.0
2,8, 1, 8, 0,20, 0.00,60.00,Sunday         
18,8521920.234
520,8521920.234
757,0.0
2,8, 1, 8, 0,21, 0.00,60.00,Sunday         
18,8521920.234
520,8521920.234
757,0.0
2,8, 1, 8, 0,22, 0.00,60.00,Sunday         
18,8521920.234
520,8521920.234
757,0.0
2,8, 1, 8, 0,23, 0.00,60.00,Sunday         
18,8521920.234
520,8521920.234
757,0.0
2,8, 1, 8, 0,24, 0.00,60.00,Sunday         
18,8521920.234
520,8521920.234
757,0.0
2,9, 1, 9, 0, 1, 0.00,60.00,Monday         
18,10846080.306
520,10846080.306
757,0.0
2,9, 1, 9, 0, 2, 0.00,60.00,Monday         
18,10846080.306
520,10846080.306
757,0.0
2,9, 1, 9, 0, 3, 0.00,60.00,Monday         
18,10846080.306
520,10846080.306
757,0.0
2,9, 1, 9, 0, 4, 0.00,60.00,Monday         
18,10846080.306
520,10846080.306
757,0.0
2,9, 1, 9, 0, 5, 0.00,60.00,Monday         
18,10846080.306
520,10846080.306
757,0.0
2,9, 1, 9, 0, 6, 0.00,60.00,Monday         
18,12395520.324
520,12395520.324
757,0.0
2,9, 1, 9, 0, 7, 0.00,60.00,Monday         
18,12395520.324
520,12395520.324
757,0.0
2,9, 1, 9, 0, 8, 0.00,60.00,Monday         
18,18593280.396
520,18593280.396
757,0.0
2,9, 1, 9, 0, 9, 0.00,60.00,Monday         
18,48807360.972
520,48807360.972
757,0.0
2,9, 1, 9, 0,10, 0.00,60.00,Monday         
18,48807360.972
520,48807360.972
757,0.0
2,9, 1, 9, 0,11, 0.00,60.00,Monday         
18,49196175.474483
520,49196175.474483
757,0.0
2,9, 1, 9, 0,12, 0.00,60.00,Monday         
18,52261138.096823
520,52261138.096823
757,0.0
2,9, 1, 9, 0,13, 0.00,60.00,Monday         
18,51017620.1295332
520,51017620.1295332
757,0.0
2,9, 1, 9, 0,14, 0.00,60.00,Monday         
18,58827985.7342536
520,58827985.7342536
757,0.0
2,9, 1, 9, 0,15, 0.00,60.00,Monday         
18,61036205.3083948
520,61036205.3083948
757,0.0
2,9, 1, 9, 0,16, 0.00,60.00,Monday         
18,62884512.1467542
520,62884512.1467541
757,0.0
2,9, 1, 9, 0,17, 0.00,60.00,Monday         
18,64362441.7002937
520,64362441.7002937
757,0.0
2,9, 1, 9, 0,18, 0.00,60.00,Monday         
18,36497379.6926403
520,36497379.6926403
757,0.0
2,9, 1, 9, 0,19, 0.00,60.00,Monday         
18,24847114.4473209
520,24847114.4473209
757,0.0
2,9, 1, 9, 0,20, 0.00,60.00,Monday         
18,23687334.5820152
520,23687334.5820152
757,0.0
2,9, 1, 9, 0,21, 0.00,60.00,Monday         
18,19053059.1745938
520,19053059.1745938
757,0.0
2,9, 1, 9, 0,22, 0.00,60.00,Monday         
18,18019280.8200845
520,18019280.8200845
757,0.0
2,9, 1, 9, 0,23, 0.00,60.00,Monday         
18,12395520.324
520,12395520.324
757,0.0
2,9, 1, 9, 0,24, 0.00,60.00,Monday         
18,10846080.306
520,10846080.306
757,0.0
2,10, 1,10, 0, 1, 0.00,60.00,Tuesday        
18,10846080.306
520,10846080.306
757,0.0
2,10, 1,10, 0, 2, 0.00,60.00,Tuesday        
18,10846080.306
520,10846080.306
757,0.0
2,10, 1,10, 0, 3, 0.00,60.00,Tuesday        
18,10846080.306
520,10846080.306
757,0.0
2,10, 1,10, 0, 4, 0.00,60.00,Tuesday        
18,10846080.306
520,10846080.306
757,0.0
2,10, 1,10, 0, 5, 0.00,60.00,Tuesday        
18,10846080.306
520,10846080.306
757,0.0
2,10, 1,10, 0, 6, 0.00,60.00,Tuesday        
18,12395520.324
520,12395520.324
757,0.0
2,10, 1,10, 0, 7, 0.00,60.00,Tuesday        
18,12395520.324
520,12395520.324
757,0.0
2,10, 1,10, 0, 8, 0.00,60.00,Tuesday        
18,18593280.396
520,18593280.396
757,0.0
2,10, 1,10, 0, 9, 0.00,60.00,Tuesday        
18,50465004.7325861
520,50465004.7325861
757,0.0
2,10, 1,10, 0,10, 0.00,60.00,Tuesday        
18,55041028.7382749
520,55041028.7382749
757,0.0
2,10, 1,10, 0,11, 0.00,60.00,Tuesday        
18,57395872.4955242
520,57395872.4955242
757,0.0
2,10, 1,10, 0,12, 0.00,60.00,Tuesday        
18,59084195.3938254
520,59084195.3938254
757,0.0
2,10, 1,10, 0,13, 0.00,60.00,Tuesday        
18,55745297.5073071
520,55745297.5073071
757,0.0
2,10, 1,10, 0,14, 0.00,60.00,Tuesday        
18,61857084.7557735
520,61857084.7557735
757,0.0
2,10, 1,10, 0,15, 0.00,60.00,Tuesday        
18,63419357.8695124
520,63419357.8695124
757,0.0
2,10, 1,10, 0,16, 0.00,60.00,Tuesday        
18,64821579.1528215
520,64821579.1528215
757,0.0
2,10, 1,10, 0,17, 0.00,60.00,Tuesday        
18,65900956.1748464
520,65900956.1748464
757,0.0
2,10, 1,10, 0,18, 0.00,60.00,Tuesday        
18,37993752.652082
520,37993752.652082
757,0.0
2,10, 1,10, 0,19, 0.00,60.00,Tuesday        
18,26205109.2026491
520,26205109.2026491
757,0.0
2,10, 1,10, 0,20, 0.00,60.00,Tuesday        
18,24944538.8848835
520,24944538.8848835
757,0.0
2,10, 1,10, 0,21, 0.00,60.00,Tuesday        
18,20153834.3236396
520,20153834.3236396
757,0.0
2,10, 1,10, 0,22, 0.00,60.00,Tuesday        
18,18963561.4777138
520,18963561.4777138
757,0.0
2,10, 1,10, 0,23, 0.00,60.00,Tuesday        
18,12395520.324
520,12395520.324
757,0.0
2,10, 1,10, 0,24, 0.00,60.00,Tuesday        
18,10846080.306
520,10846080.306
757,0.0
2,11, 1,11, 0, 1, 0.00,60.00,Wednesday      
18,10846080.306
520,10846080.306
757,0.0
2,11, 1,11, 0, 2, 0.00,60.00,Wednesday      
18,10846080.306
520,10846080.306
757,0.0
2,11, 1,11, 0, 3, 0.00,60.00,Wednesday      
18,10846080.306
520,10846080.306
757,0.0
2,11, 1,11, 0, 4, 0.00,60.00,Wednesday      
18,10846080.306
520,10846080.306
757,0.0
2,11, 1,11, 0, 5, 0.00,60.00,Wednesday      
18,10846080.306
520,10846080.306
757,0.0
2,11, 1,11, 0, 6, 0.00,60.00,Wednesday      
18,12395520.324
520,12395520.324
757,0.0
2,11, 1,11, 0, 7, 0.00,60.00,Wednesday      
18,12395520.324
520,12395520.324
757,0.0
2,11, 1,11, 0, 8, 0.00,60.00,Wednesday      
18,18593280.396
520,18593280.396
757,0.0
2,11, 1,11, 0, 9, 0.00,60.00,Wednesday      
18,52836345.0943899
520,52836345.0943899
757,0.0
2,11, 1,11, 0,10, 0.00,60.00,Wednesday      
18,57079987.248813
520,57079987.248813
757,0.0
2,11, 1,11, 0,11, 0.00,60.00,Wednesday      
18,58497202.330563
520,58497202.330563
757,0.0
2,11, 1,11, 0,12, 0.00,60.00,Wednesday      
18,59455571.0494107
520,59455571.0494107
757,0.0
2,11, 1,11, 0,13, 0.00,60.00,Wednesday      
18,55660769.7611651
520,55660769.7611651
757,0.0
2,11, 1,11, 0,14, 0.00,60.00,Wednesday      
18,61348637.8869724
520,61348637.8869724
757,0.0
2,11, 1,11, 0,15, 0.00,60.00,Wednesday      
18,62701788.1716007
520,62701788.1716007
757,0.0
2,11, 1,11, 0,16, 0.00,60.00,Wednesday      
18,64041357.1451292
520,64041357.1451292
757,0.0
2,11, 1,11, 0,17, 0.00,60.00,Wednesday      
18,65236096.0056266
520,65236096.0056266
757,0.0
2,11, 1,11, 0,18, 0.00,60.00,Wednesday      
18,37584279.7138561
520,37584279.7138561
757,0.0
2,11, 1,11, 0,19, 0.00,60.00,Wednesday      
18,25898345.609247
520,25898345.609247
757,0.0
2,11, 1,11, 0,20, 0.00,60.00,Wednesday      
18,24625811.341455
520,24625811.341455
757,0.0
2,11, 1,11, 0,21, 0.00,60.00,Wednesday      
18,19870645.9716521
520,19870645.9716521
757,0.0
2,11, 1,11, 0,22, 0.00,60.00,Wednesday      
18,18713052.6561366
520,18713052.6561366
757,0.0
2,11, 1,11, 0,23, 0.00,60.00,Wednesday      
18,12395520.324
520,12395520.324
757,0.0
2,11, 1,11, 0,24, 0.00,60.00,Wednesday      
18,10846080.306
520,10846080.306
757,0.0
2,12, 1,12, 0, 1, 0.00,60.00,Thursday       
18,10846080.306
520,10846080.306
757,0.0
2,12, 1,12, 0, 2, 0.00,60.00,Thursday       
18,10846080.306
520,10846080.306
757,0.0
2,12, 1,12, 0, 3, 0.00,60.00,Thursday       
18,10846080.306
520,10846080.306
757,0.0
2,12, 1,12, 0, 4, 0.00,60.00,Thursday       
18,10846080.306
520,10846080.306
757,0.0
2,12, 1,12, 0, 5, 0.00,60.00,Thursday       
18,10846080.306
520,10846080.306
757,0.0
2,12, 1,12, 0, 6, 0.00,60.00,Thursday       
18,12395520.324
520,12395520.324
757,0.0
2,12, 1,12, 0, 7, 0.00,60.00,Thursday       
18,12395520.324
520,12395520.324
757,0.0
2,12, 1,12, 0, 8, 0.00,60.00,Thursday       
18,18593280.396
520,18593280.396
757,0.0
2,12, 1,12, 0, 9, 0.00,60.00,Thursday       
18,51786124.9544339
520,51786124.9544339
757,0.0
2,12, 1,12, 0,10, 0.00,60.00,Thursday       
18,56364630.9274858
520,56364630.9274858
757,0.0
2,12, 1,12, 0,11, 0.00,60.00,Thursday       
18,58062996.2539343
520,58062996.2539343
757,0.0
2,12, 1,12, 0,12, 0.00,60.00,Thursday       
18,59287116.6573027
520,59287116.6573027
757,0.0
2,12, 1,12, 0,13, 0.00,60.00,Thursday       
18,55794028.3736549
520,55794028.3736549
757,0.0
2,12, 1,12, 0,14, 0.00,60.00,Thursday       
18,61923858.470581
520,61923858.470581
757,0.0
2,12, 1,12, 0,15, 0.00,60.00,Thursday       
18,63544167.6819998
520,63544167.6819998
757,0.0
2,12, 1,12, 0,16, 0.00,60.00,Thursday       
18,65035679.7581017
520,65035679.7581017
757,0.0
2,12, 1,12, 0,17, 0.00,60.00,Thursday       
18,66092717.2401937
520,66092717.2401937
757,0.0
2,12, 1,12, 0,18, 0.00,60.00,Thursday       
18,37917091.454521
520,37917091.454521
757,0.0
2,12, 1,12, 0,19, 0.00,60.00,Thursday       
18,25892012.4913958
520,25892012.4913958
757,0.0
2,12, 1,12, 0,20, 0.00,60.00,Thursday       
18,24566734.9241056
520,24566734.9241056
757,0.0
2,12, 1,12, 0,21, 0.00,60.00,Thursday       
18,19786781.126072
520,19786781.126072
757,0.0
2,12, 1,12, 0,22, 0.00,60.00,Thursday       
18,18654542.7823496
520,18654542.7823496
757,0.0
2,12, 1,12, 0,23, 0.00,60.00,Thursday       
18,12395520.324
520,12395520.324
757,0.0
2,12, 1,12, 0,24, 0.00,60.00,Thursday       
18,10846080.306
520,10846080.306
757,0.0
2,13, 1,13, 0, 1, 0.00,60.00,Friday         
18,10846080.306
520,10846080.306
757,0.0
2,13, 1,13, 0, 2, 0.00,60.00,Friday         
18,10846080.306
520,10846080.306
757,0.0
2,13, 1,13, 0, 3, 0.00,60.00,Friday         
18,10846080.306
520,10846080.306
757,0.0
2,13, 1,13, 0, 4, 0.00,60.00,Friday         
18,10846080.306
520,10846080.306
757,0.0
2,13, 1,13, 0, 5, 0.00,60.00,Friday         
18,10846080.306